VARIABLES="X","Y"
ZONE T="Mygrid",I=20,J=81,F=POINT
DT=(DOUBLE DOUBLE)
5 0
5 -0.0300147
5 -0.0665899
5 -0.111139
5 -0.165372
5 -0.231349
5 -0.311548
5 -0.408939
5 -0.527065
5 -0.670133
5 -0.843106
5 -1.05179
5 -1.30291
5 -1.60417
5 -1.96424
5 -2.39271
5 -2.89989
5 -3.49652
5 -4.19326
5 -5
3.6021 0
3.60731 -0.0313003
3.61358 -0.0694578
3.62109 -0.115954
3.6301 -0.17258
3.6409 -0.241495
3.65383 -0.325298
3.66933 -0.4271
3.68789 -0.550614
3.71015 -0.700245
3.73689 -0.881183
3.76904 -1.09949
3.8078 -1.36219
3.85465 -1.67727
3.91144 -2.05373
3.98041 -2.50147
4.06429 -3.03109
4.16622 -3.65358
4.28973 -4.37977
4.43846 -5.21965
2.59082 0
2.59912 -0.0323431
2.60908 -0.0717829
2.62101 -0.119855
2.63529 -0.178415
2.65238 -0.249705
2.67284 -0.336415
2.6973 -0.441775
2.72659 -0.569631
2.76168 -0.724548
2.80378 -0.911899
2.85441 -1.13796
2.91546 -1.40997
2.9893 -1.73618
3.0789 -2.12586
3.18795 -2.58915
3.32087 -3.13691
3.48287 -3.78035
3.67974 -4.53046
3.91758 -5.39735
1.85923 0
1.86915 -0.0331407
1.88102 -0.0735607
1.89522 -0.122837
1.9122 -0.182875
1.93248 -0.255976
1.95671 -0.344906
1.98566 -0.452979
2.02026 -0.584147
2.06167 -0.743093
2.11132 -0.935332
2.17099 -1.1673
2.24297 -1.44641
2.3301 -1.78111
2.436 -2.18086
2.56517 -2.65602
2.72309 -3.21764
2.9162 -3.87708
3.15174 -4.6455
3.43734 -5.53309
1.32998 0
1.34052 -0.0336912
1.3531 -0.0747881
1.36812 -0.124896
1.38605 -0.185955
1.40743 -0.26031
1.43291 -0.350774
1.4633 -0.460725
1.49957 -0.594183
1.54291 -0.755919
1.59483 -0.951541
1.6572 -1.18759
1.73245 -1.47162
1.82365 -1.8122
1.9347 -2.21892
2.07053 -2.70229
2.23718 -3.27348
2.4418 -3.94398
2.69247 -4.72503
2.99776 -5.62688
0.947114 0
0.957602 -0.0339934
0.970109 -0.0754628
0.985007 -0.126029
1.00274 -0.187654
1.02384 -0.262703
1.04894 -0.354022
1.0788 -0.465018
1.11436 -0.599756
1.15678 -0.763051
1.20754 -0.960567
1.26849 -1.19891
1.34204 -1.48568
1.4313 -1.82955
1.54026 -2.24016
1.67397 -2.7281
1.83873 -3.30459
2.04202 -3.98118
2.29235 -4.76914
2.59884 -5.67872
0.670135 0
0.680175 -0.0340462
0.692116 -0.0755831
0.706302 -0.126236
0.723142 -0.18797
0.74312 -0.263157
0.766817 -0.35465
0.794935 -0.465865
0.828339 -0.600876
0.868109 -0.764509
0.915617 -0.96244
0.97263 -1.20128
1.04146 -1.48867
1.12511 -1.83324
1.22753 -2.24468
1.35375 -2.73355
1.51007 -3.31108
1.70408 -3.98878
1.94446 -4.77788
2.24056 -5.6886
0.469762 0
0.479126 -0.033849
0.49023 -0.0751478
0.503381 -0.125513
0.51894 -0.186901
0.537336 -0.261671
0.559083 -0.352661
0.584803 -0.463271
0.615267 -0.597553
0.651443 -0.760307
0.694578 -0.957182
0.746303 -1.19475
0.808776 -1.4806
0.884861 -1.82333
0.97834 -2.23254
1.09412 -2.71873
1.23841 -3.29303
1.41873 -3.96685
1.64378 -4.75132
1.92294 -5.65654
0.324806 0
0.333399 -0.0334012
0.343552 -0.0741561
0.355533 -0.123861
0.369654 -0.184447
0.386284 -0.258244
0.405863 -0.348056
0.428929 -0.457237
0.456149 -0.589791
0.488375 -0.750457
0.526715 -0.944809
0.572645 -1.17934
0.628151 -1.46152
0.695915 -1.79985
0.77953 -2.2038
0.88372 -2.68369
1.01452 -3.25049
1.17931 -3.91544
1.38668 -4.68948
1.64596 -5.58252
0.219942 0
0.22776 -0.0327026
0.236963 -0.0726072
0.247778 -0.121278
0.260468 -0.180607
0.275345 -0.252877
0.292779 -0.340834
0.313225 -0.447767
0.33725 -0.577596
0.36559 -0.734964
0.399217 -0.925331
0.439454 -1.15506
0.488114 -1.43146
0.547692 -1.76284
0.621581 -2.15848
0.714305 -2.62846
0.831695 -3.18352
0.98096 -3.8346
1.17054 -4.59239
1.40964 -5.46655
0.144081 0
0.151191 -0.0317528
0.159525 -0.0705009
0.169275 -0.117764
0.180662 -0.175381
0.193945 -0.245569
0.209432 -0.330997
0.227501 -0.434861
0.248631 -0.56097
0.273452 -0.713834
0.302815 -0.898758
0.337902 -1.12192
0.380369 -1.39042
0.432536 -1.71232
0.497611 -2.09661
0.579922 -2.55309
0.685107 -3.09213
0.820192 -3.72435
0.993451 -4.46008
1.21398 -5.30862
0.0892005 0
0.0957171 -0.0305516
0.103325 -0.0678367
0.112185 -0.113319
0.122484 -0.168768
0.134436 -0.23632
0.148298 -0.318546
0.164385 -0.418521
0.183103 -0.539916
0.204992 -0.687072
0.230805 -0.865096
0.261605 -1.07993
0.298915 -1.33841
0.34491 -1.6483
0.402639 -2.01822
0.476262 -2.45758
0.571252 -2.97636
0.694473 -3.58472
0.854051 -4.29254
1.05896 -5.10875
0.0494989 0
0.0555723 -0.0290996
0.0626371 -0.0646157
0.0708334 -0.107943
0.0803196 -0.160771
0.0912785 -0.225135
0.103928 -0.303485
0.118536 -0.398756
0.135453 -0.514445
0.155157 -0.654692
0.178321 -0.824364
0.205922 -1.02912
0.239386 -1.27548
0.280777 -1.57081
0.333024 -1.92334
0.400165 -2.34201
0.487545 -2.83627
0.601906 -3.41577
0.751265 -4.08987
0.944507 -4.86701
0.0207777 0
0.026572 -0.0274088
0.0332949 -0.0608647
0.0410723 -0.101684
0.0500457 -0.151457
0.0603774 -0.212107
0.0722602 -0.285943
0.0859336 -0.375732
0.101713 -0.484773
0.120033 -0.61697
0.14152 -0.776909
0.167096 -0.969925
0.198125 -1.20215
0.236602 -1.48054
0.285382 -1.8128
0.348426 -2.20735
0.431003 -2.67305
0.539781 -3.21895
0.682712 -3.85379
0.868628 -4.58546
1.00333 0.0169585
1.00312 -0.00862273
1.00246 -0.0398628
1.00116 -0.0779961
0.998989 -0.124517
0.995645 -0.181228
0.990771 -0.250299
0.983946 -0.334328
0.974703 -0.436407
0.962562 -0.560199
0.947091 -0.709997
0.92801 -0.89079
0.90535 -1.1083
0.879665 -1.36899
0.852309 -1.68001
0.825742 -2.04911
0.803814 -2.48444
0.791951 -2.99422
0.797138 -3.58637
0.827596 -4.26792
0.982786 0.013873
0.982641 -0.00959039
0.982059 -0.03825
0.980855 -0.0732405
0.978796 -0.115936
0.975588 -0.167993
0.970876 -0.231408
0.964245 -0.308568
0.955234 -0.402318
0.94337 -0.516021
0.928232 -0.653623
0.909551 -0.819702
0.887373 -1.01951
0.862272 -1.25895
0.835626 -1.54458
0.809923 -1.88347
0.789052 -2.28302
0.778482 -2.7507
0.785244 -3.29368
0.81761 -3.91829
0.959425 0.0104518
0.959527 -0.0107226
0.959244 -0.036593
0.958404 -0.0681867
0.956784 -0.106747
0.954108 -0.153775
0.950039 -0.211076
0.944186 -0.280813
0.936115 -0.365559
0.925386 -0.468359
0.911615 -0.592778
0.894584 -0.742954
0.874391 -0.92362
0.851678 -1.1401
0.827899 -1.39829
0.805632 -1.70451
0.788866 -2.0654
0.783179 -2.48759
0.79572 -2.97742
0.834874 -3.54048
0.933028 0.0066918
0.933537 -0.0120456
0.933748 -0.0349468
0.933507 -0.0629242
0.932614 -0.0970826
0.930818 -0.138756
0.927817 -0.189549
0.923256 -0.251383
0.916748 -0.326545
0.907907 -0.417737
0.896416 -0.528123
0.882133 -0.661369
0.865249 -0.821662
0.846512 -1.0137
0.8275 -1.24267
0.810933 -1.51413
0.800956 -1.83385
0.803318 -2.2076
0.825343 -2.64086
0.875589 -3.13839
0.903411 0.00259985
0.904464 -0.0135762
0.905337 -0.0333566
0.905898 -0.0575332
0.90598 -0.0870651
0.905367 -0.123111
0.903799 -0.167064
0.900973 -0.220592
0.896565 -0.28568
0.890263 -0.364673
0.881839 -0.46031
0.871252 -0.575763
0.858819 -0.714644
0.845427 -0.880998
0.832822 -1.07926
0.823908 -1.31417
0.823038 -1.59062
0.836184 -1.91347
0.870897 -2.28726
0.935956 -2.71592
0.870441 -0.00180563
0.872155 -0.0153195
0.873829 -0.0318562
0.875365 -0.0520823
0.87663 -0.0768056
0.877452 -0.107002
0.877624 -0.143846
0.876906 -0.188742
0.875049 -0.243361
0.871832 -0.309674
0.867132 -0.389983
0.861038 -0.486942
0.854011 -0.603569
0.847114 -0.743225
0.84229 -0.909575
0.84267 -1.1065
0.852852 -1.33799
0.879078 -1.60792
0.929172 -1.91991
1.01218 -2.27698
0.834059 -0.00649257
0.836526 -0.0172671
0.839116 -0.030466
0.841765 -0.046627
0.84438 -0.0664024
0.846841 -0.0905801
0.848999 -0.120108
0.850689 -0.156122
0.851746 -0.199968
0.852052 -0.253235
0.851607 -0.317771
0.850643 -0.395703
0.849792 -0.489431
0.850313 -0.601615
0.854376 -0.735127
0.865367 -0.892974
0.88817 -1.07819
0.929327 -1.29368
0.996974 -1.54206
1.10045 -1.82546
0.794298 -0.0114135
0.797589 -0.019395
0.801181 -0.029191
0.805045 -0.0412077
0.809137 -0.0559385
0.813389 -0.0739801
0.81772 -0.0960504
0.822042 -0.123008
0.826284 -0.155872
0.830443 -0.195838
0.83465 -0.244295
0.839295 -0.302828
0.845197 -0.373211
0.853829 -0.457389
0.867608 -0.557423
0.890201 -0.675426
0.926801 -0.813465
0.984283 -0.973445
1.07112 -1.15698
1.19699 -1.36528
0.751301 -0.0165038
0.755463 -0.0216626
0.760112 -0.0280194
0.765261 -0.0358477
0.770913 -0.0454805
0.777058 -0.0573208
0.783684 -0.0718542
0.790785 -0.0896605
0.798393 -0.111425
0.806619 -0.137951
0.815739 -0.170158
0.826309 -0.209086
0.839342 -0.255879
0.85654 -0.311754
0.880582 -0.377956
0.915431 -0.455693
0.966607 -0.546057
1.04134 -0.649937
1.14846 -0.767938
1.29798 -0.900319
0.705331 -0.0216803
0.710386 -0.0240107
0.71612 -0.0269213
0.722587 -0.0305527
0.729837 -0.0350771
0.737922 -0.0407038
0.7469 -0.0476851
0.75685 -0.0563215
0.767906 -0.0669656
0.780302 -0.080023
0.794456 -0.0959483
0.811096 -0.115234
0.831436 -0.138389
0.857412 -0.165905
0.891971 -0.198207
0.939381 -0.235598
1.0055 -0.27819
1.09792 -0.325856
1.22584 -0.378186
1.39964 -0.434497
0.656778 -0.0268406
0.662722 -0.0263608
0.669537 -0.0258475
0.677316 -0.0253092
0.68616 -0.0247583
0.696177 -0.0242116
0.707497 -0.02369
0.720284 -0.0232163
0.734773 -0.022812
0.751318 -0.0224894
0.770484 -0.0222392
0.793166 -0.0220106
0.820779 -0.0216825
0.855492 -0.0210242
0.900522 -0.0196476
0.960441 -0.0169536
1.04145 -0.0120851
1.15149 -0.00389965
1.30014 0.00901845
1.49816 0.0282901
0.606148 -0.0318633
0.612953 -0.0286157
0.620814 -0.0247302
0.629863 -0.0200851
0.640246 -0.0145357
0.652132 -0.00790919
0.665715 1.81669e-06
0.681243 0.00944754
0.699048 0.0207328
0.719602 0.0342325
0.743607 0.0504129
0.772125 0.06986
0.806762 0.0933154
0.849915 0.12172
0.905061 0.156265
0.977068 0.198437
1.07246 0.250048
1.19955 0.313241
1.36828 0.390423
1.58974 0.484139
0.554055 -0.0366102
0.561666 -0.0306615
0.570504 -0.0234851
0.58074 -0.0148324
0.592563 -0.00440507
0.606194 0.00815467
0.621891 0.0232767
0.639979 0.0414778
0.66088 0.0633811
0.685176 0.0897396
0.713697 0.121465
0.74766 0.159667
0.788853 0.20569
0.839884 0.261172
0.904474 0.328084
0.987773 0.40878
1.09662 0.506007
1.23965 0.62288
1.42716 0.762778
1.67059 0.929147
0.501187 -0.0409316
0.50952 -0.0323728
0.519236 -0.0220165
0.530536 -0.00949128
0.54365 0.00564941
0.558844 0.0239422
0.576435 0.0460318
0.596814 0.0726928
0.620486 0.104856
0.648128 0.143639
0.680689 0.190385
0.719522 0.246707
0.766578 0.314537
0.824655 0.396181
0.897698 0.494368
0.991107 0.612287
1.112 0.753591
1.26934 0.922336
1.47373 1.12284
1.7369 1.35941
0.448275 -0.0446741
0.457221 -0.0336208
0.467681 -0.0202251
0.479882 -0.00399863
0.494088 0.0156469
0.510604 0.039419
0.529795 0.0681679
0.552109 0.102914
0.578119 0.144883
0.608586 0.19554
0.644554 0.256642
0.687493 0.330282
0.739493 0.418953
0.803516 0.525601
0.883694 0.653678
0.985647 0.807174
1.11674 0.990605
1.2862 1.20893
1.50491 1.46735
1.78489 1.77103
0.396053 -0.0476911
0.405476 -0.0342827
0.416512 -0.018018
0.429411 0.00170232
0.444461 0.0256003
0.461999 0.0545447
0.482424 0.0895797
0.506229 0.131958
0.534039 0.183183
0.566678 0.245049
0.605264 0.319701
0.651359 0.409688
0.70716 0.518031
0.775754 0.648281
0.861426 0.804573
0.969969 0.991652
1.10895 1.21485
1.2878 1.47997
1.51765 1.79308
1.81075 2.1601
0.345221 -0.0498533
0.354956 -0.034254
0.366369 -0.01532
0.379723 0.00765093
0.395321 0.0355052
0.41352 0.0692616
0.434742 0.110145
0.459507 0.159624
0.488473 0.219459
0.522503 0.291753
0.562765 0.379011
0.610879 0.484207
0.66911 0.610851
0.740634 0.763058
0.829836 0.945599
0.942631 1.16392
1.08672 1.42412
1.27171 1.73278
1.50889 2.09676
1.81068 2.52273
0.29641 -0.0510596
0.306265 -0.0334573
0.317822 -0.012083
0.331348 0.0138596
0.347151 0.0453306
0.365592 0.083486
0.387102 0.129715
0.412209 0.185685
0.441583 0.253392
0.476099 0.335218
0.516942 0.434
0.565753 0.553098
0.624826 0.696472
0.697373 0.868751
0.787824 1.07529
0.902154 1.32217
1.04814 1.61619
1.23547 1.96465
1.47554 2.37514
1.78088 2.855
0.250151 -0.051242
0.259911 -0.0318486
0.271348 -0.00829216
0.284723 0.0203077
0.300339 0.0550128
0.318547 0.0971017
0.339767 0.148111
0.364516 0.209885
0.393447 0.28463
0.427419 0.37498
0.4676 0.484066
0.515608 0.615594
0.573717 0.773927
0.645118 0.964154
0.734226 1.19215
0.847005 1.46457
0.991231 1.78883
1.1766 2.17289
1.41452 2.62497
1.71756 3.15302
0.206863 -0.0503671
0.216285 -0.029418
0.227307 -0.00396632
0.240174 0.0269414
0.255165 0.0644553
0.272609 0.10996
0.292895 0.165122
0.316502 0.231936
0.34404 0.312794
0.37632 0.410545
0.414448 0.528579
0.459977 0.670903
0.515105 0.842226
0.582941 1.04804
0.667812 1.29466
0.775593 1.58927
0.913971 1.93979
1.09256 2.35477
1.32271 2.84297
1.61692 3.41288
0.166848 -0.0484289
0.175664 -0.0261829
0.185946 0.000848447
0.197908 0.0336798
0.211794 0.0735348
0.227889 0.121887
0.246528 0.180508
0.268131 0.251524
0.293232 0.337475
0.322552 0.441396
0.357097 0.566886
0.3983 0.718206
0.448226 0.900356
0.50983 1.11916
0.587275 1.38131
0.686259 1.6944
0.814289 2.06681
0.980796 2.50756
1.19697 3.02588
1.47516 3.63068
0.13029 -0.0454345
0.13821 -0.0221742
0.147398 0.00609298
0.158024 0.040429
0.17028 0.0821151
0.184387 0.132694
0.200606 0.194022
0.219263 0.268322
0.240786 0.358258
0.265768 0.467002
0.295062 0.598325
0.329927 0.756679
0.372227 0.947295
0.424693 1.17625
0.491237 1.45055
0.577286 1.7781
0.690063 2.16763
0.838713 2.62854
1.03415 3.17042
1.28848 3.80252
0.0972775 -0.0413803
0.103988 -0.0174113
0.111698 0.0117191
0.120522 0.047106
0.130582 0.0900709
0.142013 0.142205
0.154975 0.205422
0.169671 0.282017
0.186384 0.374733
0.205534 0.486845
0.227774 0.622238
0.254127 0.785504
0.286186 0.982029
0.326374 1.21808
0.378261 1.50086
0.446902 1.83849
0.539127 2.23999
0.663678 2.71497
0.831074 3.27331
1.05308 3.9245
0.0678339 -0.0362092
0.0729969 -0.011861
0.0788199 0.017731
0.0853424 0.0536798
0.0925971 0.0973283
0.100612 0.150294
0.109418 0.21452
0.119062 0.292339
0.129643 0.386541
0.141363 0.500451
0.154614 0.638017
0.170121 0.803904
0.189128 1.00358
0.213667 1.24342
0.246867 1.53072
0.293302 1.87376
0.359288 2.28164
0.453042 2.76416
0.58457 3.3313
0.765169 3.99271
0.0419805 -0.0297231
0.045263 -0.00532027
0.0487927 0.0243381
0.0525196 0.0603674
0.0563686 0.104113
0.0602372 0.157197
0.0639989 0.221566
0.0675143 0.299559
0.070657 0.393969
0.0733629 0.508132
0.0757135 0.646002
0.0780668 0.812257
0.0812479 1.01238
0.0868068 1.25275
0.0973367 1.54069
0.116822 1.88448
0.15095 2.29328
0.20729 2.77688
0.29521 3.3453
0.425427 4.0082
0.0199356 -0.0213366
0.0212514 0.00306881
0.022383 0.03273
0.023187 0.0687625
0.0234753 0.112512
0.0230095 0.165599
0.0214992 0.229973
0.0186089 0.307969
0.0139783 0.402385
0.00726588 0.516552
-0.00177362 0.654428
-0.0131636 0.820688
-0.0265195 1.02082
-0.0407934 1.2612
-0.0539548 1.54915
-0.0626376 1.89297
-0.0618143 2.3018
-0.0445981 2.78544
-0.00229112 3.35393
0.0752088 4.01692
-1 -1
-0.994451 -0.96959
-0.988256 -0.932627
-0.981402 -0.887721
-0.973889 -0.833193
-0.965731 -0.76702
-0.956951 -0.686773
-0.94756 -0.589535
-0.937523 -0.47182
-0.926695 -0.32947
-0.914716 -0.157553
-0.900847 0.0497606
-0.883736 0.299304
-0.861104 0.59902
-0.829362 0.958031
-0.783193 1.38663
-0.715184 1.8962
-0.615629 2.4989
-0.472654 3.20719
-0.272796 4.033
0.0199356 0.0213366
0.017477 0.0457759
0.0138153 0.075446
0.00854496 0.11145
0.00115489 0.155117
-0.00898761 0.208049
-0.0226484 0.272168
-0.0407279 0.349784
-0.064244 0.443661
-0.0942832 0.5571
-0.131905 0.694032
-0.177977 0.859121
-0.232924 1.05786
-0.296375 1.2967
-0.366711 1.58308
-0.440561 1.9255
-0.512315 2.33343
-0.573799 2.81713
-0.614275 3.38721
-0.62091 4.054
0.0419805 0.0297231
0.037306 0.0542733
0.0309423 0.0840782
0.0223789 0.120246
0.0109777 0.164113
-0.00404727 0.217286
-0.0236462 0.281699
-0.0489404 0.359671
-0.0812111 0.453978
-0.121857 0.567938
-0.172306 0.7055
-0.233855 0.871349
-0.307425 1.07101
-0.393211 1.31094
-0.490229 1.59863
-0.595806 1.94262
-0.705079 2.35241
-0.810643 2.83831
-0.90252 3.41098
-0.968573 4.08077
0.0678339 0.0362092
0.0609241 0.0609188
0.0518348 0.0909178
0.0399494 0.127322
0.0245014 0.171475
0.00455006 0.224997
-0.0210407 0.289833
-0.0536152 0.368317
-0.0947205 0.463246
-0.146071 0.577958
-0.209465 0.716429
-0.286634 0.883373
-0.378999 1.08435
-0.487325 1.32587
-0.61127 1.61545
-0.748861 1.9617
-0.895986 2.37417
-1.04602 2.86324
-1.18974 3.43961
-1.31571 4.11372
0.0972775 0.0413803
0.0881157 0.0662985
0.07628 0.0965514
0.0610471 0.133264
0.0415209 0.177793
0.0166049 0.231771
-0.015025 0.297161
-0.0549376 0.376317
-0.104948 0.47206
-0.167089 0.587757
-0.243533 0.727418
-0.336447 0.895798
-0.447759 1.0985
-0.578807 1.34209
-0.729893 1.63416
-0.89975 1.98336
-1.08502 2.39935
-1.27986 2.89256
-1.4758 3.47378
-1.66212 4.15352
0.13029 0.0454345
0.118861 0.070615
0.10426 0.101187
0.0856571 0.138288
0.0620247 0.183289
0.0321092 0.237841
-0.00560215 0.303927
-0.052905 0.383929
-0.111885 0.480696
-0.184894 0.597633
-0.274482 0.738792
-0.383257 0.908979
-0.513653 1.11386
-0.667586 1.36006
-0.846007 1.65525
-1.04836 2.00818
-1.27204 2.42858
-1.51198 2.92699
-1.7605 3.51431
-2.00755 4.20113
0.166848 0.0484289
0.15314 0.0739332
0.135759 0.104899
0.113766 0.14248
0.0860039 0.188064
0.0510601 0.243325
0.00723147 0.310272
-0.0475056 0.391318
-0.115508 0.489351
-0.199451 0.60782
-0.302264 0.750831
-0.426995 0.92325
-0.576591 1.13082
-0.753549 1.38024
-0.959469 1.6793
-1.19451 2.03682
-1.45682 2.46267
-1.74212 2.96751
-2.04349 3.56236
-2.35159 4.25793
0.206863 0.0503671
0.190868 0.0762693
0.170697 0.10772
0.145302 0.14589
0.113395 0.192191
0.0734038 0.248323
0.0234342 0.316328
-0.0387663 0.398658
-0.115828 0.498248
-0.210749 0.6186
-0.326839 0.763888
-0.467594 0.939054
-0.636468 1.14993
-0.836543 1.40332
-1.07007 1.70712
-1.33792 2.07029
-1.63901 2.50285
-1.96983 3.01559
-2.32423 3.61968
-2.69357 4.32598
0.250151 0.051242
0.231868 0.0776365
0.208907 0.109687
0.180111 0.148586
0.144058 0.195775
0.0990189 0.252986
0.0429071 0.322301
-0.0267589 0.406222
-0.112882 0.507739
-0.218786 0.630425
-0.34816 0.778532
-0.504943 0.957101
-0.693103 1.17207
-0.916305 1.43037
-1.17745 1.74005
-1.47812 2.11022
-1.81798 2.55108
-2.19432 3.07359
-2.60174 3.68913
-3.03228 4.40871
0.29641 0.0510596
0.275858 0.0780783
0.250128 0.110889
0.217956 0.150714
0.177789 0.199028
0.127739 0.257607
0.0655298 0.328585
-0.0115475 0.414523
-0.106668 0.518486
-0.223475 0.644134
-0.366037 0.795821
-0.538735 0.978706
-0.746045 1.19887
-0.992208 1.46341
-1.28077 1.78054
-1.61402 2.1596
-1.99237 2.61098
-2.41388 3.14589
-2.8739 3.77594
-3.36516 4.51234
0.345221 0.0498533
0.322463 0.0777108
0.294043 0.111543
0.258588 0.152611
0.214421 0.202438
0.159498 0.262857
0.091359 0.336071
0.00707373 0.424722
-0.0967971 0.531974
-0.22421 0.661604
-0.379602 0.818105
-0.567782 1.0068
-0.793719 1.23395
-1.06222 1.50688
-1.37744 1.83403
-1.74237 2.22503
-2.15816 2.69056
-2.62358 3.24214
-3.13472 3.89166
-3.68498 4.65066
0.396053 0.0476911
0.371374 0.0768582
0.34061 0.112285
0.302297 0.155296
0.254645 0.207487
0.195476 0.270781
0.12217 0.347488
0.0316014 0.440379
-0.0798986 0.552774
-0.21656 0.68863
-0.38314 0.852658
-0.584821 1.05043
-0.827002 1.28851
-1.11497 1.57455
-1.45345 1.91738
-1.84599 2.32704
-2.29438 2.81467
-2.79804 3.39227
-3.35367 4.07221
-3.95523 4.86646
0.448275 0.0446741
0.42353 0.0757627
0.392682 0.113531
0.354262 0.159392
0.306474 0.215052
0.247134 0.282565
0.173613 0.3644
0.0827761 0.463517
-0.0290582 0.583462
-0.166133 0.728461
-0.33322 0.903541
-0.535515 1.11465
-0.778434 1.36877
-1.06728 1.67406
-1.40677 2.03991
-1.80046 2.47696
-2.25013 2.99704
-2.75517 3.61282
-3.31225 4.33738
-3.91528 5.18332
0.501187 0.0409316
0.477855 0.073215
0.448726 0.112438
0.412394 0.160072
0.367144 0.217888
0.310885 0.288023
0.241102 0.373044
0.154795 0.476029
0.0484478 0.600663
-0.0819898 0.751341
-0.24106 0.933286
-0.433687 1.15267
-0.664968 1.41676
-0.939837 1.73401
-1.26259 2.11416
-1.63632 2.56823
-2.06228 3.10846
-2.5393 3.74799
-3.06348 4.5003
-3.6282 5.37841
0.554055 0.0366102
0.532354 0.0697025
0.505208 0.109911
0.471289 0.158743
0.428969 0.218019
0.376269 0.289928
0.310804 0.377103
0.229735 0.482704
0.12973 0.610509
0.00696629 0.765027
-0.142833 0.951612
-0.324279 1.1766
-0.542102 1.44742
-0.800813 1.77276
-1.10423 2.16257
-1.45489 2.62816
-1.85345 3.18203
-2.29812 3.83762
-2.78437 4.60872
-3.30493 5.50863
0.606148 0.0318633
0.586149 0.0655803
0.561072 0.106549
0.529669 0.156308
0.490407 0.216709
0.441422 0.289987
0.380465 0.378826
0.304862 0.486445
0.211479 0.616696
0.0967267 0.774175
-0.0433931 0.964339
-0.213165 1.19364
-0.416939 1.46967
-0.658781 1.80123
-0.942004 2.1985
-1.26859 2.67297
-1.63856 3.23738
-2.04948 3.90538
-2.49615 4.69099
-2.97067 5.60774
0.656778 0.0268406
0.638519 0.0610674
0.615561 0.102657
0.586733 0.153171
0.550602 0.214491
0.505419 0.288885
0.449077 0.379079
0.37907 0.488343
0.292467 0.620589
0.185919 0.780482
0.0557101 0.973563
-0.102108 1.20639
-0.291494 1.48664
-0.516063 1.82329
-0.778612 2.22664
-1.08054 2.70836
-1.42126 3.28135
-1.79764 3.95947
-2.2038 4.75693
-2.63122 5.68744
0.705331 0.0216803
0.688844 0.0563342
0.66804 0.0984437
0.641833 0.14959
0.608887 0.211679
0.567573 0.287008
0.515929 0.378338
0.451618 0.488979
0.371916 0.622894
0.273718 0.784807
0.153599 0.980331
0.0079495 1.2161
-0.16679 1.4999
-0.373777 1.84081
-0.615284 2.24924
-0.892126 2.73702
-1.20306 3.31721
-1.5443 4.0038
-1.90927 4.8112
-2.2888 5.75323
0.751301 0.0165038
0.736611 0.0515198
0.717995 0.0940702
0.694448 0.145753
0.664736 0.208494
0.627352 0.284616
0.580477 0.376908
0.521951 0.488717
0.449258 0.624046
0.359542 0.787671
0.249672 0.985264
0.116384 1.22353
-0.0434781 1.51033
-0.232605 1.85484
-0.45274 2.2676
-0.704104 2.76052
-0.984809 3.3468
-1.29038 4.04058
-1.61354 4.8564
-1.94447 5.80821
0.794298 0.0114135
0.781431 0.0467378
0.765033 0.0896634
0.744185 0.141802
0.717753 0.205099
0.684355 0.281894
0.642319 0.375005
0.589663 0.487807
0.524084 0.624339
0.442975 0.789421
0.343506 0.988773
0.222764 1.22916
0.0780013 1.51852
-0.093001 1.86609
-0.291449 2.28251
-0.516963 2.77981
-0.766999 3.37127
-1.03639 4.07118
-1.31716 4.89416
-1.59884 5.85431
0.834059 0.00649257
0.823039 0.0420784
0.808889 0.0853223
0.790777 0.137848
0.767671 0.201615
0.738314 0.278983
0.701186 0.372787
0.654483 0.486431
0.596118 0.623983
0.52374 0.790299
0.434822 0.991142
0.326806 1.23333
0.197359 1.52485
0.0447405 1.87503
-0.131712 2.29456
-0.331012 2.79556
-0.549955 3.39142
-0.782672 4.09652
-1.0205 4.92559
-1.25227 5.8928
0.870441 0.00180563
0.861292 0.0376113
0.849421 0.0811227
0.834079 0.133974
0.814344 0.198136
0.789083 0.275984
0.756928 0.370372
0.71626 0.484722
0.665208 0.623131
0.601682 0.790483
0.52346 0.992579
0.428347 1.23627
0.314428 1.52962
0.180448 1.88197
0.0262926 2.30412
-0.146439 2.80823
-0.333872 3.40779
-0.529438 4.11725
-0.723759 4.95143
-0.905014 5.92459
0.903411 -0.00259985
0.896156 0.0333865
0.88659 0.0771175
0.874054 0.130236
0.85773 0.194723
0.836616 0.272965
0.809497 0.367831
0.774939 0.482762
0.731293 0.621874
0.676731 0.790077
0.609343 0.9932
0.527298 1.23813
0.429107 1.53297
0.314002 1.88712
0.182427 2.3114
0.0365973 2.81807
-0.118939 3.42067
-0.276904 4.13371
-0.42721 4.97209
-0.557364 5.95014
0.933028 -0.0066918
0.927693 0.0294446
0.920463 0.0733581
0.910771 0.126698
0.897907 0.191455
0.880996 0.270025
0.858984 0.365288
0.830624 0.480701
0.794489 0.620396
0.74902 0.789305
0.692622 0.993281
0.623832 1.23924
0.541595 1.53532
0.445636 1.89095
0.336961 2.31702
0.218413 2.82581
0.0952164 3.43092
-0.0246349 4.14694
-0.130335 4.98882
-0.20872 5.97093
0.959425 -0.0104518
0.956011 0.0257764
0.951122 0.0698014
0.944279 0.123277
0.93488 0.188198
0.922182 0.266967
0.905287 0.362473
0.883136 0.478179
0.854529 0.618229
0.818173 0.787567
0.772789 0.992061
0.717286 1.23865
0.651037 1.53547
0.574267 1.89201
0.488542 2.31916
0.397328 2.82924
0.306532 3.4359
0.224857 4.15373
0.163823 4.99775
0.137266 5.98235
0.982786 -0.013873
0.981389 0.0225185
0.978955 0.0667424
0.9751 0.12046
0.969337 0.185675
0.96106 0.264802
0.949535 0.360741
0.933902 0.476973
0.913196 0.617661
0.886406 0.78777
0.852585 0.993196
0.81103 1.24091
0.761567 1.53909
0.70494 1.89725
0.643303 2.32634
0.580778 2.83874
0.523977 3.44814
0.482349 4.16922
0.468158 5.01703
0.495934 6.00605
-1 -1
-0.98744 -0.958098
-0.973018 -0.907183
-0.956523 -0.845347
-0.937734 -0.770285
-0.916403 -0.679224
-0.892237 -0.568826
-0.864866 -0.435093
-0.833769 -0.273237
-0.798169 -0.0775492
-0.756856 0.158753
-0.707918 0.44369
-0.648373 0.786682
-0.573672 1.1987
-0.4771 1.69236
-0.349142 2.28198
-0.17693 2.98336
0.0560208 3.81351
0.369553 4.78988
0.785872 5.92925
0.0207777 0
0.0282149 0.0341458
0.0362988 0.0755919
0.0449539 0.125876
0.054058 0.186851
0.0634397 0.260747
0.0728853 0.350247
0.0821645 0.458567
0.0910856 0.58956
0.0996 0.74783
0.107977 0.938862
0.117079 1.16917
0.128759 1.44643
0.146399 1.77965
0.175571 2.17927
0.22476 2.65721
0.306015 3.2268
0.435307 3.90246
0.63235 4.69916
0.91965 5.6315
0.0494989 0
0.0570954 0.0316848
0.0653714 0.0701316
0.0742581 0.116762
0.0836413 0.173289
0.0933591 0.241773
0.103209 0.324693
0.112976 0.425023
0.122483 0.546323
0.131703 0.692854
0.140929 0.869692
0.151054 1.08287
0.163965 1.33952
0.18309 1.64803
0.214052 2.0181
0.265401 2.4609
0.349259 2.98888
0.481679 3.61561
0.682467 4.3552
0.974222 5.22142
0.0892005 0
0.0847132 -0.0056611
0.0782614 -0.0127235
0.069206 -0.0215252
0.0567433 -0.0324799
0.0398798 -0.0460905
0.0174135 -0.0629629
-0.0120703 -0.0838191
-0.0501763 -0.109506
-0.0986295 -0.141001
-0.159136 -0.1794
-0.233144 -0.225895
-0.321473 -0.281723
-0.423791 -0.34809
-0.537958 -0.426059
-0.659265 -0.516415
-0.77972 -0.619513
-0.887554 -0.73515
-0.967206 -0.862477
-1 -1
0.144081 0
0.139272 -0.0056598
0.132424 -0.0127213
0.122882 -0.0215225
0.109822 -0.0324776
0.0922247 -0.0460898
0.0688592 -0.0629654
0.0382751 -0.0838268
-0.00117422 -0.109522
-0.0512633 -0.141028
-0.113755 -0.179441
-0.190162 -0.225954
-0.281374 -0.281803
-0.387138 -0.348194
-0.505392 -0.426185
-0.631508 -0.516558
-0.757568 -0.619662
-0.871866 -0.735285
-0.958892 -0.862567
-1 -1
0.219942 0
0.214688 -0.00565801
0.207294 -0.0127181
0.19708 -0.0215189
0.183193 -0.0324745
0.164582 -0.0460888
0.139973 -0.0629688
0.107868 -0.0838374
0.0665619 -0.109543
0.0142117 -0.141064
-0.0510241 -0.179498
-0.130746 -0.226035
-0.225944 -0.281914
-0.336471 -0.348336
-0.460376 -0.426359
-0.593139 -0.516756
-0.726946 -0.619869
-0.850181 -0.735473
-0.947401 -0.862692
-1 -1
0.324806 0
0.318938 -0.00565554
0.310788 -0.0127138
0.299643 -0.0215138
0.284615 -0.0324702
0.264602 -0.0460875
0.238275 -0.0629735
0.204068 -0.0838521
0.160194 -0.109573
0.104718 -0.141115
0.0356898 -0.179576
-0.0486158 -0.226148
-0.149324 -0.282067
-0.266435 -0.348533
-0.398149 -0.426599
-0.540102 -0.51703
-0.684617 -0.620155
-0.820205 -0.735732
-0.931516 -0.862864
-1 -1
0.469762 0
0.463044 -0.00565212
0.453848 -0.0127079
0.441419 -0.0215067
0.424811 -0.0324643
0.402861 -0.0460857
0.374159 -0.06298
0.337045 -0.0838724
0.289624 -0.109614
0.229827 -0.141185
0.155556 -0.179683
0.0649144 -0.226303
-0.0434102 -0.282278
-0.169622 -0.348806
-0.312133 -0.426932
-0.466787 -0.517409
-0.626106 -0.620551
-0.778769 -0.736091
-0.909557 -0.863103
-1 -1
0.670135 0
0.662243 -0.00564739
0.651602 -0.0126997
0.637397 -0.021497
0.618607 -0.0324561
0.593978 -0.0460833
0.561993 -0.0629891
0.520862 -0.0839005
0.468535 -0.109671
0.402767 -0.141281
0.321247 -0.179832
0.221849 -0.226518
0.102995 -0.282571
-0.0357965 -0.349183
-0.193231 -0.427391
-0.365442 -0.517933
-0.545225 -0.621098
-0.721492 -0.736587
-0.879204 -0.863432
-1 -1
0.947114 0
0.937598 -0.00564086
0.92496 -0.0126883
0.908299 -0.0214836
0.886493 -0.0324447
0.858161 -0.0460798
0.821638 -0.0630016
0.774954 -0.0839393
0.715847 -0.109749
0.641823 -0.141414
0.550285 -0.180038
0.438781 -0.226815
0.305374 -0.282975
0.149192 -0.349704
-0.0288722 -0.428026
-0.225353 -0.518657
-0.433422 -0.621853
-0.642316 -0.737272
-0.837247 -0.863888
-1 -1
1.32998 0
1.31822 -0.00563183
1.30283 -0.0126726
1.28277 -0.021465
1.25679 -0.032429
1.22335 -0.0460751
1.18055 -0.0630188
1.12619 -0.083993
1.05771 -0.109857
0.972273 -0.141599
0.866887 -0.180323
0.738649 -0.227225
0.585124 -0.283533
0.404904 -0.350424
0.198324 -0.428903
-0.0317059 -0.519658
-0.278875 -0.622898
-0.532871 -0.738219
-0.779249 -0.864517
-1 -1
1.85923 0
1.84437 -0.00561934
1.82516 -0.0126509
1.80041 -0.0214394
1.76867 -0.0324073
1.72814 -0.0460685
1.67668 -0.0630427
1.61171 -0.0840672
1.53027 -0.110007
1.42906 -0.141853
1.30453 -0.180717
1.15316 -0.227793
0.971826 -0.284306
0.758378 -0.35142
0.512379 -0.430116
0.235975 -0.521041
-0.0652429 -0.624342
-0.381584 -0.739528
-0.699077 -0.865387
-1 -1
2.59082 0
2.57167 -0.00560208
2.54718 -0.0126209
2.51594 -0.0214039
2.47624 -0.0323772
2.42593 -0.0460595
2.36248 -0.0630756
2.28284 -0.0841697
2.1835 -0.110213
2.06048 -0.142205
1.90949 -0.181261
1.72614 -0.228577
1.50637 -0.285373
1.24699 -0.352796
0.946502 -0.431793
0.605994 -0.522953
0.230063 -0.626338
-0.172458 -0.741338
-0.588255 -0.86659
-1 -1
3.6021 0
3.57702 -0.00557823
3.54524 -0.0125794
3.50504 -0.0213549
3.45432 -0.0323357
3.3905 -0.046047
3.31047 -0.0631212
3.21056 -0.0843115
3.08646 -0.110499
2.9333 -0.142692
2.74573 -0.182013
2.51819 -0.229662
2.24527 -0.286848
1.9224 -0.354698
1.5466 -0.434111
1.11748 -0.525596
0.638268 -0.629097
0.11662 -0.743839
-0.435064 -0.868253
-1 -1
5 0
4.96673 -0.00554525
4.92487 -0.012522
4.87228 -0.0212871
4.80633 -0.0322784
4.72382 -0.0460297
4.62089 -0.0631843
4.49296 -0.0845074
4.33464 -0.110894
4.13981 -0.143365
3.90168 -0.183053
3.61304 -0.23116
3.26667 -0.288888
2.85604 -0.357327
2.37611 -0.437315
1.8245 -0.52925
1.20254 -0.632911
0.516216 -0.747297
-0.223306 -0.870551
-1 -1
