VARIABLES="X","Y"
ZONE T="Mygrid",I=20,J=81,F=POINT
DT=(DOUBLE DOUBLE)
5 0
5 -0.0300147
5 -0.0665899
5 -0.111139
5 -0.165372
5 -0.231349
5 -0.311548
5 -0.408939
5 -0.527065
5 -0.670133
5 -0.843106
5 -1.05179
5 -1.30291
5 -1.60417
5 -1.96424
5 -2.39271
5 -2.89989
5 -3.49652
5 -4.19326
5 -5
3.94076 0
3.94534 -0.030045
3.95092 -0.0666572
3.95772 -0.111252
3.966 -0.165539
3.97607 -0.231583
3.9883 -0.311863
4.00317 -0.409352
4.02119 -0.527598
4.04302 -0.670811
4.06942 -0.843958
4.10126 -1.05285
4.13958 -1.30423
4.18555 -1.60579
4.2405 -1.96623
4.30588 -2.39513
4.38327 -2.90282
4.47431 -3.50005
4.58063 -4.1975
4.70374 -5.00505
3.15796 0
3.16546 -0.0300705
3.1746 -0.0667137
3.18573 -0.111346
3.19928 -0.16568
3.21577 -0.231779
3.23581 -0.312128
3.26015 -0.409699
3.28967 -0.528045
3.32542 -0.67138
3.36865 -0.844674
3.4208 -1.05374
3.48356 -1.30533
3.55884 -1.60715
3.64882 -1.96789
3.7559 -2.39716
3.88264 -2.90528
4.03174 -3.50302
4.20586 -4.20106
4.40746 -5.0093
2.57944 0
2.58863 -0.0300911
2.59984 -0.0667595
2.61349 -0.111423
2.6301 -0.165794
2.65031 -0.231938
2.67488 -0.312342
2.70472 -0.40998
2.7409 -0.528407
2.78473 -0.67184
2.83772 -0.845253
2.90165 -1.05447
2.97858 -1.30623
3.07087 -1.60825
3.18118 -1.96924
3.31244 -2.3988
3.46782 -2.90727
3.65059 -3.50543
3.86404 -4.20394
4.11118 -5.01273
2.1519 0
2.16188 -0.0301069
2.17404 -0.0667945
2.18886 -0.111481
2.2069 -0.16588
2.22884 -0.23206
2.25552 -0.312505
2.28791 -0.410195
2.3272 -0.528684
2.37478 -0.672192
2.43231 -0.845696
2.50172 -1.05502
2.58524 -1.30691
2.68544 -1.6091
2.8052 -1.97028
2.94771 -2.40006
3.1164 -2.9088
3.31484 -3.50726
3.54658 -4.20615
3.8149 -5.01536
1.83593 0
1.84603 -0.0301178
1.85834 -0.0668187
1.87333 -0.111521
1.89158 -0.165941
1.91379 -0.232144
1.94078 -0.312619
1.97355 -0.410344
2.01331 -0.528876
2.06145 -0.672436
2.11966 -0.846003
2.18989 -1.0554
2.2744 -1.30739
2.37579 -1.60968
2.49696 -1.97099
2.64116 -2.40093
2.81184 -2.90985
3.01263 -3.50854
3.24711 -4.20767
3.5186 -5.01718
1.60242 0
1.61215 -0.0301239
1.624 -0.0668321
1.63843 -0.111544
1.656 -0.165974
1.67737 -0.232191
1.70336 -0.312682
1.73491 -0.410427
1.77318 -0.528983
1.81953 -0.672571
1.87557 -0.846173
1.94318 -1.05562
2.02453 -1.30765
2.12213 -1.61
2.23879 -1.97139
2.3776 -2.40141
2.54191 -2.91044
2.73521 -3.50924
2.96094 -4.20852
3.2223 -5.01819
1.42985 0
1.43883 -0.0301251
1.44978 -0.0668348
1.46311 -0.111548
1.47934 -0.165981
1.49908 -0.2322
1.52308 -0.312694
1.55222 -0.410443
1.58756 -0.529004
1.63037 -0.672599
1.68213 -0.846207
1.74458 -1.05566
1.81972 -1.3077
1.90986 -1.61007
2.01761 -1.97147
2.14581 -2.40151
2.29758 -2.91056
2.47611 -3.50938
2.68459 -4.20869
2.92599 -5.01839
1.30232 0
1.31029 -0.0301215
1.32 -0.0668268
1.33182 -0.111535
1.34622 -0.165961
1.36373 -0.232172
1.38502 -0.312657
1.41088 -0.410394
1.44224 -0.52894
1.48022 -0.672517
1.52614 -0.846105
1.58154 -1.05553
1.6482 -1.30754
1.72818 -1.60988
1.82376 -1.97123
1.93751 -2.40122
2.07215 -2.9102
2.23054 -3.50896
2.4155 -4.20818
2.62967 -5.01779
1.20807 0
1.21482 -0.030113
1.22305 -0.0668079
1.23308 -0.111503
1.24528 -0.165914
1.26013 -0.232107
1.27818 -0.312568
1.3001 -0.410278
1.32669 -0.528791
1.35888 -0.672327
1.39781 -0.845866
1.44478 -1.05523
1.50129 -1.30718
1.56909 -1.60942
1.65013 -1.97067
1.74656 -2.40054
1.8607 -2.90938
1.99498 -3.50797
2.15178 -4.20699
2.33334 -5.01637
1.13841 0
1.14381 -0.0300996
1.15038 -0.0667783
1.15839 -0.111454
1.16813 -0.16584
1.17999 -0.232004
1.1944 -0.31243
1.21191 -0.410096
1.23314 -0.528556
1.25885 -0.672029
1.28993 -0.845491
1.32744 -1.05476
1.37257 -1.3066
1.42671 -1.60871
1.49142 -1.9698
1.56843 -2.39948
1.65958 -2.90809
1.7668 -3.50641
1.89202 -4.20513
2.03701 -5.01415
1.08694 0
1.09086 -0.0300814
1.09564 -0.0667379
1.10147 -0.111387
1.10856 -0.16574
1.11718 -0.231864
1.12767 -0.312241
1.1404 -0.409848
1.15585 -0.528237
1.17455 -0.671623
1.19717 -0.84498
1.22445 -1.05413
1.25729 -1.30581
1.29667 -1.60773
1.34375 -1.96861
1.39977 -2.39803
1.46608 -2.90634
1.54409 -3.50429
1.63519 -4.20259
1.74066 -5.01111
1.04889 0
1.05127 -0.0300584
1.05416 -0.0666867
1.05768 -0.111301
1.06197 -0.165613
1.06719 -0.231686
1.07353 -0.312001
1.08123 -0.409534
1.09058 -0.527832
1.10189 -0.671108
1.11557 -0.844332
1.13207 -1.05332
1.15193 -1.30481
1.17576 -1.6065
1.20423 -1.9671
1.23812 -2.39619
1.27823 -2.90411
1.32541 -3.50161
1.38051 -4.19936
1.44431 -5.00727
1.02078 0
1.02154 -0.0300304
1.02247 -0.0666248
1.0236 -0.111198
1.02498 -0.165459
1.02666 -0.231471
1.0287 -0.311712
1.03118 -0.409154
1.03418 -0.527342
1.03782 -0.670485
1.04222 -0.843548
1.04753 -1.05234
1.05392 -1.30359
1.06158 -1.60501
1.07074 -1.96527
1.08164 -2.39396
1.09454 -2.90141
1.10971 -3.49836
1.12744 -4.19546
1.14796 -5.00262
1.00333 0.0169585
1.00242 -0.0131387
1.00131 -0.0498143
0.999961 -0.0944862
0.998315 -0.148868
0.996313 -0.215026
0.99388 -0.295445
0.990924 -0.393104
0.98734 -0.511554
0.982999 -0.655015
0.97775 -0.828463
0.971418 -1.03772
0.963798 -1.28953
0.954656 -1.59162
0.94373 -1.95268
0.930729 -2.38232
0.915339 -2.89089
0.897235 -3.48916
0.876092 -4.18782
0.851613 -4.99677
0.982786 0.013873
0.980223 -0.016108
0.9771 -0.052642
0.973295 -0.0971415
0.968664 -0.151313
0.96303 -0.217216
0.956181 -0.297325
0.947864 -0.394606
0.937777 -0.5126
0.92556 -0.655507
0.910789 -0.828285
0.892968 -1.03673
0.871523 -1.28757
0.845797 -1.58849
0.815049 -1.94816
0.77846 -2.37615
0.735149 -2.88276
0.684199 -3.47872
0.6247 -4.17468
0.555809 -4.98051
0.959425 0.0104518
0.955235 -0.0192962
0.95013 -0.0555462
0.943913 -0.0996999
0.936343 -0.153451
0.927135 -0.218841
0.915941 -0.298327
0.902348 -0.394853
0.885861 -0.511929
0.865893 -0.653725
0.841751 -0.82516
0.812624 -1.03199
0.777575 -1.28088
0.735528 -1.57946
0.685272 -1.93633
0.62547 -2.36099
0.554682 -2.86366
0.471409 -3.45499
0.374163 -4.14554
0.261565 -4.94511
0.933028 0.0066918
0.927246 -0.0227193
0.920201 -0.0585589
0.91162 -0.102213
0.901174 -0.155355
0.888465 -0.220005
0.873017 -0.298591
0.854257 -0.394023
0.831503 -0.509773
0.803945 -0.649964
0.770627 -0.819458
0.73043 -1.02394
0.682058 -1.27002
0.624029 -1.56522
0.554671 -1.91805
0.472139 -2.3379
0.374444 -2.83488
0.259519 -3.41951
0.125311 -4.10224
-0.0300845 -4.89275
0.903411 0.00259985
0.896078 -0.0263687
0.887143 -0.0616691
0.876259 -0.104666
0.863009 -0.157009
0.846891 -0.220686
0.827298 -0.29809
0.803505 -0.392086
0.774646 -0.506095
0.739694 -0.644177
0.697435 -0.81112
0.646453 -1.01253
0.585103 -1.2549
0.511504 -1.54566
0.423536 -1.89318
0.318859 -2.30671
0.194952 -2.79622
0.0491917 -3.37205
-0.121026 -4.04451
-0.318116 -4.82313
0.870441 -0.00180563
0.861605 -0.0302281
0.850837 -0.0648631
0.837722 -0.10705
0.821757 -0.158406
0.802333 -0.220883
0.778724 -0.296827
0.750053 -0.389052
0.715277 -0.500912
0.673159 -0.636391
0.622237 -0.800188
0.560803 -0.997801
0.486875 -1.2356
0.398187 -1.52088
0.292184 -1.86185
0.166047 -2.26759
0.016737 -2.74787
-0.158907 -3.31285
-0.364022 -3.97263
-0.601518 -4.73657
0.834059 -0.00649257
0.823774 -0.0342675
0.81124 -0.0681134
0.795975 -0.109339
0.777391 -0.159525
0.754782 -0.220578
0.7273 -0.294793
0.693927 -0.384916
0.653449 -0.494227
0.604424 -0.62662
0.545151 -0.786684
0.473641 -0.979795
0.38759 -1.21218
0.284357 -1.49096
0.160971 -1.82416
0.0141476 -2.22065
-0.159649 -2.68999
-0.364097 -3.2421
-0.602851 -3.88685
-0.879296 -4.63338
0.794298 -0.0114135
0.782624 -0.0384418
0.768398 -0.0713778
0.75107 -0.111495
0.729976 -0.160331
0.704314 -0.219744
0.67312 -0.291963
0.63524 -0.379664
0.589294 -0.486036
0.533647 -0.614869
0.466369 -0.770631
0.385201 -0.95855
0.287526 -1.18469
0.17035 -1.45597
0.0302991 -1.78021
-0.136355 -2.16605
-0.333625 -2.62277
-0.565688 -3.16003
-0.836689 -3.78745
-1.15047 -4.51392
0.751301 -0.0165038
0.738302 -0.0426892
0.722463 -0.0745981
0.703169 -0.113464
0.679682 -0.160778
0.651109 -0.218337
0.616376 -0.288305
0.574198 -0.37327
0.52304 -0.476326
0.46108 -0.601141
0.38617 -0.752046
0.295793 -0.934105
0.187038 -1.15319
0.0565691 -1.41601
-0.0993704 -1.73015
-0.284931 -2.10395
-0.504581 -2.54642
-0.762969 -3.06694
-1.06471 -3.67479
-1.41409 -4.3786
0.705331 -0.0216803
0.691077 -0.04693
0.673707 -0.0776987
0.65255 -0.115176
0.626794 -0.160799
0.59546 -0.216302
0.557373 -0.283769
0.511121 -0.365698
0.455021 -0.465071
0.387076 -0.585426
0.304929 -0.730938
0.205822 -0.906492
0.0865612 -1.11775
-0.0565108 -1.37118
-0.227514 -1.67409
-0.430999 -2.03453
-0.671867 -2.4612
-0.955216 -2.96311
-1.28611 -3.54924
-1.66924 -4.2279
0.656778 -0.0268406
0.641339 -0.0510656
0.622527 -0.0805855
0.599612 -0.116542
0.571717 -0.160313
0.537782 -0.213563
0.496531 -0.278292
0.446437 -0.356896
0.385678 -0.452236
0.31209 -0.567707
0.22312 -0.707314
0.115783 -0.875742
-0.0133833 -1.07842
-0.168338 -1.32157
-0.353543 -1.61218
-0.573929 -1.958
-0.834801 -2.36735
-1.14168 -2.84889
-1.50006 -3.41124
-1.91501 -4.06235
0.606148 -0.0318633
0.5896 -0.0549787
0.569435 -0.0831465
0.544873 -0.117456
0.514972 -0.159222
0.478597 -0.210033
0.43438 -0.271798
0.380685 -0.346802
0.315558 -0.437775
0.236679 -0.547957
0.141313 -0.681169
0.026258 -0.841883
-0.112195 -1.03528
-0.27829 -1.26729
-0.476811 -1.54459
-0.713041 -1.87457
-0.992669 -2.26517
-1.32161 -2.72466
-1.70575 -3.26124
-2.15054 -3.88254
0.554055 -0.0366102
0.536472 -0.0585358
0.515046 -0.0852538
0.488948 -0.117797
0.457178 -0.157414
0.418528 -0.20561
0.371547 -0.264195
0.314494 -0.335338
0.245294 -0.421629
0.161483 -0.526139
0.060154 -0.652495
-0.0620949 -0.804937
-0.209205 -0.98838
-0.385685 -1.20845
-0.59662 -1.47148
-0.847621 -1.78447
-1.14473 -2.15497
-1.49425 -2.5908
-1.90241 -3.09977
-2.375 -3.68909
0.501187 -0.0409316
0.482645 -0.0615922
0.46005 -0.0867687
0.432529 -0.117434
0.399026 -0.154765
0.358269 -0.200181
0.308725 -0.255385
0.248561 -0.322424
0.175587 -0.403736
0.0872053 -0.502217
-0.0196502 -0.621282
-0.148566 -0.764929
-0.303699 -0.937788
-0.489804 -1.14516
-0.712242 -1.39301
-0.976932 -1.68795
-1.29025 -2.03707
-1.65882 -2.44776
-2.08924 -2.92736
-2.58761 -3.48268
0.448275 -0.0446741
0.42885 -0.0639998
0.405179 -0.0875495
0.376347 -0.116234
0.341249 -0.151153
0.29855 -0.193633
0.246647 -0.245271
0.183618 -0.307978
0.107169 -0.384037
0.014578 -0.476154
-0.0973662 -0.587526
-0.232422 -0.721891
-0.394942 -0.883581
-0.58991 -1.07755
-0.822941 -1.30939
-1.10024 -1.58527
-1.42847 -1.91183
-1.8146 -2.29599
-2.26552 -2.7446
-2.78762 -3.26403
0.396053 -0.0476911
0.375821 -0.0656173
0.351166 -0.0874617
0.321136 -0.114069
0.284579 -0.146459
0.240106 -0.185864
0.186046 -0.233762
0.120397 -0.291929
0.0407708 -0.362479
-0.0556682 -0.447926
-0.172265 -0.551234
-0.312933 -0.675869
-0.482208 -0.82585
-0.685279 -1.00578
-0.927995 -1.22083
-1.21681 -1.47673
-1.55869 -1.77964
-1.96087 -2.13598
-2.43053 -2.55211
-2.97433 -3.03393
0.345221 -0.0498533
0.324257 -0.0663213
0.298711 -0.0863887
0.267595 -0.110831
0.229716 -0.140587
0.183633 -0.176786
0.127618 -0.220788
0.0595941 -0.274223
-0.0229122 -0.339034
-0.12284 -0.41753
-0.243654 -0.512433
-0.38941 -0.62693
-0.564808 -0.76471
-0.775225 -0.93
-1.02672 -1.12756
-1.32599 -1.36264
-1.68023 -1.64091
-2.09696 -1.96826
-2.5836 -2.35054
-3.14708 -2.79316
0.29641 -0.0510596
0.274789 -0.0660161
0.248443 -0.0842417
0.216352 -0.106441
0.177287 -0.133466
0.129761 -0.166342
0.0719912 -0.206306
0.00183739 -0.254836
-0.0832528 -0.313699
-0.18631 -0.384991
-0.310907 -0.471184
-0.461229 -0.575172
-0.64212 -0.700307
-0.859126 -0.850426
-1.1185 -1.02985
-1.42714 -1.24336
-1.79248 -1.49609
-2.22225 -1.7934
-2.72414 -2.14059
-3.30526 -2.54259
0.250151 -0.051242
0.227949 -0.0646396
0.200895 -0.0809657
0.167942 -0.100851
0.127826 -0.125059
0.0790232 -0.154509
0.0197005 -0.190307
-0.0523388 -0.23378
-0.139716 -0.286507
-0.245543 -0.350369
-0.373489 -0.427578
-0.527851 -0.520728
-0.713603 -0.63282
-0.936442 -0.767293
-1.20278 -0.928017
-1.51972 -1.11927
-1.89488 -1.34566
-2.3362 -1.61198
-2.85158 -1.92298
-3.44832 -2.28309
0.206863 -0.0503671
0.184157 -0.0621641
0.156487 -0.0765396
0.122784 -0.0940493
0.0817555 -0.115365
0.0318424 -0.141296
-0.02883 -0.172818
-0.102508 -0.211096
-0.191873 -0.257524
-0.300108 -0.313756
-0.430966 -0.381741
-0.588839 -0.463761
-0.778818 -0.562462
-1.00673 -0.680868
-1.27913 -0.82239
-1.60328 -0.990795
-1.98697 -1.19014
-2.43834 -1.42464
-2.96544 -1.69848
-3.57575 -2.01556
0.166848 -0.0484289
0.143713 -0.058589
0.115521 -0.07097
0.0811824 -0.0860503
0.0393801 -0.104408
-0.0114745 -0.126742
-0.0732913 -0.15389
-0.148359 -0.186857
-0.23941 -0.226844
-0.349686 -0.275273
-0.483012 -0.333825
-0.643863 -0.404466
-0.837426 -0.489472
-1.06963 -0.59145
-1.34717 -0.713337
-1.67743 -0.858376
-2.06837 -1.03006
-2.52825 -1.23202
-3.06529 -1.46788
-3.68712 -1.74096
0.13029 -0.0454345
0.106804 -0.0539275
0.0781857 -0.0642769
0.0433274 -0.0768827
0.000892209 -0.0922286
-0.0507322 -0.110898
-0.113485 -0.133591
-0.189689 -0.161149
-0.282118 -0.194574
-0.394064 -0.235057
-0.529408 -0.284001
-0.692694 -0.34305
-0.889187 -0.414108
-1.12491 -0.499353
-1.40665 -0.601239
-1.74191 -0.722479
-2.13876 -0.865992
-2.6056 -1.03482
-3.15078 -1.23197
-3.78202 -1.46024
0.0972775 -0.0413803
0.0735214 -0.0481817
0.0445729 -0.0564698
0.00931279 -0.0665649
-0.0336115 -0.0788542
-0.0858309 -0.0938048
-0.149307 -0.111978
-0.22639 -0.134047
-0.319884 -0.160815
-0.43312 -0.193235
-0.570024 -0.232431
-0.735192 -0.279719
-0.93395 -0.336624
-1.17239 -0.40489
-1.45738 -0.486484
-1.7965 -0.583576
-2.19793 -0.698505
-2.67015 -0.833704
-3.22161 -0.991588
-3.86012 -1.1744
0.0678339 -0.0362092
0.0438882 -0.041301
0.0147086 -0.0475057
-0.020833 -0.0550632
-0.0640999 -0.0642635
-0.116736 -0.075456
-0.180719 -0.0890613
-0.258417 -0.105583
-0.352658 -0.125622
-0.466797 -0.149893
-0.604794 -0.179237
-0.771281 -0.214638
-0.971625 -0.257239
-1.21197 -0.308346
-1.49923 -0.36943
-1.84106 -0.442116
-2.24569 -0.528156
-2.72168 -0.629371
-3.27755 -0.747569
-3.92116 -0.884426
0.0419805 -0.0297231
0.0179274 -0.0330945
-0.0113831 -0.0372029
-0.0470842 -0.0422069
-0.0905452 -0.0482986
-0.143418 -0.0557095
-0.207687 -0.0647178
-0.285734 -0.0756573
-0.380398 -0.0889258
-0.495049 -0.104996
-0.633666 -0.124425
-0.800899 -0.147865
-1.00214 -0.176073
-1.24356 -0.209912
-1.53212 -0.250357
-1.87548 -0.298484
-2.28193 -0.355454
-2.76005 -0.42247
-3.31841 -0.500732
-3.96491 -0.591349
0.0199356 -0.0213366
-0.00414317 -0.0229866
-0.0334849 -0.0249972
-0.069224 -0.0274461
-0.112731 -0.0304274
-0.16566 -0.0340543
-0.229998 -0.0384629
-0.308128 -0.0438167
-0.402892 -0.0503102
-0.517666 -0.0581749
-0.65643 -0.0676835
-0.823842 -0.0791551
-1.0253 -0.0929597
-1.26698 -0.10952
-1.55584 -0.129314
-1.89957 -0.152868
-2.30645 -0.180748
-2.78508 -0.213546
-3.34403 -0.251847
-3.99122 -0.296195
0.00333333 -0.00912419
-0.0206984 -0.00906942
-0.049983 -0.00900268
-0.0856523 -0.00892138
-0.129075 -0.00882242
-0.1819 -0.00870202
-0.246113 -0.00855567
-0.32409 -0.00837795
-0.41867 -0.00816239
-0.53322 -0.00790131
-0.671713 -0.00758566
-0.838799 -0.00720485
-1.03986 -0.00674659
-1.28107 -0.00619685
-1.56937 -0.00553977
-1.91243 -0.00475789
-2.31851 -0.00383236
-2.79621 -0.00274361
-3.35407 -0.00147216
-4 -2.77556e-16
0.00333333 0.00912419
-0.0206457 0.0108475
-0.049866 0.0129474
-0.0854571 0.0155052
-0.128784 0.0186189
-0.181494 0.0224069
-0.245566 0.0270115
-0.323372 0.0326031
-0.417744 0.0393852
-0.532043 0.0475993
-0.670233 0.0575303
-0.836952 0.0695117
-1.03758 0.0839296
-1.27825 0.101226
-1.56592 0.121899
-1.90823 0.146499
-2.31342 0.175619
-2.79007 0.209874
-3.34671 0.249877
-3.99122 0.296195
0.0199356 0.0213366
-0.00398522 0.0247584
-0.0331345 0.028928
-0.0686391 0.0340068
-0.111861 0.0401895
-0.164443 0.047711
-0.228359 0.0568539
-0.305976 0.0679567
-0.400119 0.0814233
-0.51414 0.0977335
-0.651993 0.117453
-0.818307 0.141243
-1.01844 0.169872
-1.25854 0.204216
-1.5455 0.245265
-1.88698 0.294111
-2.29119 0.351931
-2.76668 0.419949
-3.32196 0.499379
-3.96491 0.591349
0.0419805 0.0297231
0.01819 0.0348539
-0.0108005 0.0411061
-0.0461117 0.0487214
-0.0890982 0.057992
-0.141393 0.0692701
-0.204961 0.0829794
-0.282156 0.0996274
-0.375786 0.11982
-0.489186 0.144276
-0.626288 0.173844
-0.791696 0.209517
-0.990742 0.252443
-1.22953 0.303941
-1.51493 0.365492
-1.85455 0.438734
-2.25655 0.525432
-2.72946 0.627421
-3.28172 0.746522
-3.92116 0.884426
0.0678339 0.0362092
0.0442546 0.0430416
0.0155215 0.0513675
-0.0194763 0.0615087
-0.0620812 0.0738541
-0.113912 0.088873
-0.176916 0.107129
-0.253425 0.129299
-0.346224 0.156189
-0.458617 0.188757
-0.594503 0.228132
-0.758442 0.275636
-0.955721 0.3328
-1.19239 0.401378
-1.47526 0.483344
-1.81186 0.580879
-2.21029 0.696333
-2.679 0.832149
-3.22636 0.990754
-3.86012 1.1744
0.0972775 0.0413803
0.0739903 0.0498976
0.0456131 0.0602767
0.0110489 0.0729186
-0.0310282 0.0883084
-0.082217 0.107031
-0.14444 0.129789
-0.220002 0.157426
-0.311651 0.190947
-0.422652 0.231546
-0.556854 0.280631
-0.718762 0.339849
-0.913597 0.41111
-1.14733 0.496599
-1.4267 0.598778
-1.75913 0.720365
-2.15263 0.864289
-2.61553 1.0336
-3.1561 1.23131
-3.78202 1.46024
0.13029 0.0454345
0.107374 0.0556127
0.0794496 0.0680155
0.0454368 0.0831225
0.00403102 0.101513
-0.0463411 0.123886
-0.107572 0.151082
-0.181928 0.184108
-0.272115 0.224165
-0.381344 0.27268
-0.513406 0.331336
-0.672731 0.402102
-0.864457 0.487258
-1.09446 0.589416
-1.36937 0.711519
-1.6965 0.856814
-2.08372 1.0288
-2.53924 1.23112
-3.07119 1.46739
-3.68712 1.74096
0.166848 0.0484289
0.144381 0.0602375
0.117004 0.0746271
0.0836578 0.0921541
0.0430634 0.113491
-0.00632167 0.139448
-0.0663522 0.171
-0.139251 0.209316
-0.227671 0.25579
-0.33476 0.312077
-0.464234 0.380129
-0.620437 0.462231
-0.808406 0.561028
-1.0339 0.679552
-1.30343 0.821214
-1.62414 0.989784
-2.00378 1.18932
-2.45037 1.42405
-2.97189 1.69817
-3.57575 2.01556
0.206863 0.0503671
0.184922 0.06377
0.158184 0.0801024
0.125617 0.0999958
0.0859704 0.124213
0.0377389 0.153675
-0.0208895 0.189487
-0.0920856 0.232976
-0.17844 0.285725
-0.283028 0.349611
-0.409477 0.426851
-0.562032 0.520037
-0.745611 0.632173
-0.965841 0.766699
-1.22907 0.927486
-1.54229 1.11882
-1.91306 1.34529
-2.34922 1.61172
-2.85856 1.92284
-3.44832 2.28309
0.250151 0.051242
0.228808 0.0661974
0.2028 0.0844217
0.171122 0.106619
0.132558 0.133642
0.0856425 0.166516
0.0286145 0.206477
-0.0406382 0.255004
-0.124636 0.313862
-0.226369 0.385149
-0.349366 0.471336
-0.497757 0.575316
-0.676324 0.700442
-0.890544 0.85055
-1.14658 1.02996
-1.45126 1.24346
-1.81191 1.49617
-2.23616 1.79345
-2.7316 2.14062
-3.30526 2.54259
0.29641 0.0510596
0.275739 0.0675202
0.25055 0.0875788
0.219868 0.112011
0.182518 0.141753
0.13708 0.177936
0.0818474 0.221919
0.0147747 0.27533
-0.0665784 0.340113
-0.165109 0.418575
-0.284235 0.513436
-0.427954 0.627882
-0.600901 0.765602
-0.808377 0.930819
-1.05636 1.12829
-1.35144 1.36327
-1.70074 1.64142
-2.11163 1.96862
-2.59148 2.35073
-3.14708 2.79316
0.345221 0.0498533
0.325294 0.0677665
0.301012 0.0895951
0.271435 0.116183
0.235429 0.14855
0.191626 0.187926
0.138381 0.23579
0.0737227 0.293914
-0.0047024 0.364413
-0.0996869 0.449799
-0.214525 0.553031
-0.353072 0.677576
-0.519794 0.827449
-0.719802 1.00724
-0.958857 1.22214
-1.24332 1.47786
-1.58004 1.78055
-1.97615 2.13663
-2.43873 2.55245
-2.97433 3.03393
0.396053 0.0476911
0.376941 0.0669986
0.353653 0.0905262
0.325286 0.119184
0.290754 0.15407
0.248745 0.196511
0.197679 0.2481
0.135667 0.310749
0.060452 0.386735
-0.0306446 0.478767
-0.140782 0.590034
-0.273658 0.724274
-0.433556 0.885812
-0.625378 1.0796
-0.854648 1.31122
-1.12747 1.58684
-1.45041 1.9131
-1.8303 2.29689
-2.27395 2.74509
-2.78762 3.26403
0.448275 0.0446741
0.43005 0.0653123
0.407843 0.0904614
0.380793 0.121094
0.347864 0.158384
0.307804 0.20375
0.259109 0.258895
0.199976 0.325861
0.128252 0.407084
0.0413846 0.505458
-0.0636404 0.624394
-0.190348 0.767884
-0.342823 0.940555
-0.525741 1.1477
-0.744368 1.39529
-1.00452 1.6899
-1.31247 2.03864
-1.67473 2.44888
-2.09778 2.92796
-2.58761 3.48268
0.501187 0.0409316
0.483921 0.0628312
0.462882 0.0895176
0.437255 0.122022
0.406058 0.161592
0.368106 0.209731
0.321972 0.268247
0.26595 0.339306
0.197999 0.425495
0.115701 0.529882
0.0162004 0.656088
-0.103842 0.808349
-0.248296 0.991575
-0.421592 1.21138
-0.628719 1.4741
-0.875189 1.78673
-1.16694 2.15678
-1.51014 2.5921
-1.91094 3.10047
-2.375 3.68909
0.554055 0.0366102
0.53782 0.059697
0.518035 0.0878302
0.493938 0.122097
0.464602 0.163812
0.428914 0.214561
0.385533 0.276249
0.332852 0.35116
0.268956 0.442021
0.191568 0.552067
0.0980035 0.685115
-0.014877 0.845631
-0.150713 1.03879
-0.31367 1.27051
-0.508439 1.54748
-0.740205 1.87705
-1.01455 2.26716
-1.33728 2.72608
-1.71416 3.26201
-2.15054 3.88254
0.606148 0.0318633
0.591014 0.0560581
0.572572 0.0855413
0.550108 0.121453
0.522762 0.16517
0.489495 0.218354
0.449056 0.283002
0.399949 0.361508
0.340386 0.45673
0.268246 0.572057
0.181028 0.711489
0.0758036 0.879708
-0.0508195 1.08214
-0.202724 1.32498
-0.384283 1.61523
-0.60033 1.96062
-0.856066 2.36946
-1.15691 2.8504
-1.50823 3.41205
-1.91501 4.06235
0.656778 0.0268406
0.642815 0.0520594
0.6258 0.0827903
0.605075 0.120221
0.579846 0.165789
0.549153 0.221223
0.511844 0.288607
0.466538 0.370436
0.411585 0.469687
0.345029 0.589895
0.264562 0.735229
0.167482 0.910567
0.0506596 1.12156
-0.0894869 1.37468
-0.256993 1.67722
-0.456318 2.03722
-0.69226 2.46336
-0.969816 2.96466
-1.29394 3.55007
-1.66924 4.2279
0.705331 0.0216803
0.692609 0.0478347
0.677105 0.0797057
0.658221 0.118525
0.635233 0.165783
0.607266 0.223274
0.573271 0.293159
0.531988 0.378023
0.481916 0.480956
0.421272 0.605624
0.347951 0.756349
0.259494 0.938192
0.153047 1.15702
0.025348 1.41953
-0.127281 1.73329
-0.308902 2.10665
-0.523889 2.5486
-0.776792 3.06849
-1.07213 3.67562
-1.41409 4.3786
0.751301 0.0165038
0.739885 0.0435015
0.725973 0.0764003
0.709029 0.116472
0.688401 0.165253
0.663306 0.224599
0.632802 0.296736
0.595759 0.384338
0.55083 0.49059
0.496413 0.619277
0.430622 0.774863
0.351249 0.96257
0.255733 1.18845
0.141148 1.45943
0.00419341 1.7833
-0.158776 2.1687
-0.351685 2.62491
-0.578617 3.16157
-0.843626 3.78827
-1.15047 4.51392
0.794298 0.0114135
0.784252 0.0391589
0.772009 0.0729688
0.757098 0.11415
0.738945 0.164283
0.716861 0.225271
0.690017 0.299407
0.657419 0.389434
0.61788 0.498629
0.569992 0.630881
0.512095 0.790776
0.442245 0.983681
0.35819 1.21582
0.257353 1.4943
0.13683 1.82715
-0.00658595 2.22322
-0.176349 2.69205
-0.376053 3.24358
-0.609266 3.88764
-0.879296 4.63338
0.834059 0.00649257
0.825441 0.034887
0.81494 0.0694877
0.802149 0.111632
0.786578 0.162937
0.767635 0.225353
0.744609 0.301222
0.716646 0.393355
0.68273 0.505105
0.641653 0.64045
0.59199 0.804084
0.532074 1.0015
0.459973 1.23907
0.373477 1.52406
0.270095 1.8647
0.147075 2.27003
0.00145583 2.74983
-0.169846 3.31426
-0.369892 3.97339
-0.601518 4.73657
0.870441 0.00180563
0.863306 0.0307477
0.854612 0.0660159
0.844022 0.108973
0.83113 0.161268
0.815446 0.224888
0.796382 0.302221
0.773231 0.396131
0.745151 0.510036
0.711142 0.647992
0.670025 0.814783
0.620419 1.01601
0.560724 1.25816
0.489112 1.54865
0.403518 1.89585
0.301667 2.30901
0.181104 2.79807
0.0392778 3.37338
-0.126346 4.04522
-0.318116 4.82313
0.903411 -0.00259985
0.897807 0.0267867
0.890979 0.0625963
0.882661 0.106214
0.872536 0.159311
0.860218 0.223907
0.845245 0.302428
0.827062 0.39778
0.805008 0.513434
0.778298 0.653508
0.746004 0.82286
0.707043 1.02718
0.660159 1.27304
0.603914 1.56799
0.536689 1.92053
0.456694 2.34003
0.362004 2.8366
0.250614 3.42074
0.120532 4.1029
-0.0300845 4.89275
0.933028 -0.0066918
0.928997 0.0230336
0.924085 0.0592561
0.918103 0.103376
0.91082 0.157086
0.90196 0.222427
0.891189 0.301853
0.878111 0.398305
0.862247 0.515292
0.843034 0.656981
0.819805 0.828286
0.791781 1.03496
0.758057 1.28366
0.7176 1.58201
0.669245 1.93861
0.611705 2.36295
0.543595 2.86524
0.463471 3.45612
0.369904 4.14615
0.261565 4.94511
0.959425 -0.0104518
0.957002 0.0195087
0.954049 0.0560177
0.950453 0.100487
0.946075 0.154622
0.940749 0.220479
0.934275 0.300533
0.926414 0.397748
0.916878 0.51566
0.905329 0.65847
0.891366 0.831129
0.874521 1.03944
0.854249 1.2901
0.829931 1.59082
0.800865 1.95024
0.766278 2.37793
0.725336 2.88419
0.677174 3.47975
0.620931 4.17523
0.555809 4.98051
0.982786 -0.013873
0.981999 0.0162056
0.981039 0.0528586
0.97987 0.0975031
0.978448 0.151851
0.976717 0.217969
0.974613 0.298339
0.972058 0.395937
0.968959 0.514314
0.965205 0.657687
0.960667 0.831028
0.955193 1.04016
0.948605 1.29181
0.940701 1.59371
0.931255 1.95455
0.920014 2.38393
0.906708 2.89219
0.891056 3.49009
0.872777 4.18832
0.851613 4.99677
1.02078 0
1.02154 0.0300304
1.02247 0.0666248
1.0236 0.111198
1.02498 0.165459
1.02666 0.231471
1.0287 0.311712
1.03118 0.409154
1.03418 0.527342
1.03782 0.670485
1.04222 0.843548
1.04753 1.05234
1.05392 1.30359
1.06158 1.60501
1.07074 1.96527
1.08164 2.39396
1.09454 2.90141
1.10971 3.49836
1.12744 4.19546
1.14796 5.00262
1.04889 0
1.05127 0.0300584
1.05416 0.0666867
1.05768 0.111301
1.06197 0.165613
1.06719 0.231686
1.07353 0.312001
1.08123 0.409534
1.09058 0.527832
1.10189 0.671108
1.11557 0.844332
1.13207 1.05332
1.15193 1.30481
1.17576 1.6065
1.20423 1.9671
1.23812 2.39619
1.27823 2.90411
1.32541 3.50161
1.38051 4.19936
1.44431 5.00727
1.08694 0
1.09086 0.0300814
1.09564 0.0667379
1.10147 0.111387
1.10856 0.16574
1.11718 0.231864
1.12767 0.312241
1.1404 0.409848
1.15585 0.528237
1.17455 0.671623
1.19717 0.84498
1.22445 1.05413
1.25729 1.30581
1.29667 1.60773
1.34375 1.96861
1.39977 2.39803
1.46608 2.90634
1.54409 3.50429
1.63519 4.20259
1.74066 5.01111
1.13841 0
1.14381 0.0300996
1.15038 0.0667783
1.15839 0.111454
1.16813 0.16584
1.17999 0.232004
1.1944 0.31243
1.21191 0.410096
1.23314 0.528556
1.25885 0.672029
1.28993 0.845491
1.32744 1.05476
1.37257 1.3066
1.42671 1.60871
1.49142 1.9698
1.56843 2.39948
1.65958 2.90809
1.7668 3.50641
1.89202 4.20513
2.03701 5.01415
1.20807 0
1.21482 0.030113
1.22305 0.0668079
1.23308 0.111503
1.24528 0.165914
1.26013 0.232107
1.27818 0.312568
1.3001 0.410278
1.32669 0.528791
1.35888 0.672327
1.39781 0.845866
1.44478 1.05523
1.50129 1.30718
1.56909 1.60942
1.65013 1.97067
1.74656 2.40054
1.8607 2.90938
1.99498 3.50797
2.15178 4.20699
2.33334 5.01637
1.30232 0
1.31029 0.0301215
1.32 0.0668268
1.33182 0.111535
1.34622 0.165961
1.36373 0.232172
1.38502 0.312657
1.41088 0.410394
1.44224 0.52894
1.48022 0.672517
1.52614 0.846105
1.58154 1.05553
1.6482 1.30754
1.72818 1.60988
1.82376 1.97123
1.93751 2.40122
2.07215 2.9102
2.23054 3.50896
2.4155 4.20818
2.62967 5.01779
1.42985 0
1.43883 0.0301251
1.44978 0.0668348
1.46311 0.111548
1.47934 0.165981
1.49908 0.2322
1.52308 0.312694
1.55222 0.410443
1.58756 0.529004
1.63037 0.672599
1.68213 0.846207
1.74458 1.05566
1.81972 1.3077
1.90986 1.61007
2.01761 1.97147
2.14581 2.40151
2.29758 2.91056
2.47611 3.50938
2.68459 4.20869
2.92599 5.01839
1.60242 0
1.61215 0.0301239
1.624 0.0668321
1.63843 0.111544
1.656 0.165974
1.67737 0.232191
1.70336 0.312682
1.73491 0.410427
1.77318 0.528983
1.81953 0.672571
1.87557 0.846173
1.94318 1.05562
2.02453 1.30765
2.12213 1.61
2.23879 1.97139
2.3776 2.40141
2.54191 2.91044
2.73521 3.50924
2.96094 4.20852
3.2223 5.01819
1.83593 0
1.84603 0.0301178
1.85834 0.0668187
1.87333 0.111521
1.89158 0.165941
1.91379 0.232144
1.94078 0.312619
1.97355 0.410344
2.01331 0.528876
2.06145 0.672436
2.11966 0.846003
2.18989 1.0554
2.2744 1.30739
2.37579 1.60968
2.49696 1.97099
2.64116 2.40093
2.81184 2.90985
3.01263 3.50854
3.24711 4.20767
3.5186 5.01718
2.1519 0
2.16188 0.0301069
2.17404 0.0667945
2.18886 0.111481
2.2069 0.16588
2.22884 0.23206
2.25552 0.312505
2.28791 0.410195
2.3272 0.528684
2.37478 0.672192
2.43231 0.845696
2.50172 1.05502
2.58524 1.30691
2.68544 1.6091
2.8052 1.97028
2.94771 2.40006
3.1164 2.9088
3.31484 3.50726
3.54658 4.20615
3.8149 5.01536
2.57944 0
2.58863 0.0300911
2.59984 0.0667595
2.61349 0.111423
2.6301 0.165794
2.65031 0.231938
2.67488 0.312342
2.70472 0.40998
2.7409 0.528407
2.78473 0.67184
2.83772 0.845253
2.90165 1.05447
2.97858 1.30623
3.07087 1.60825
3.18118 1.96924
3.31244 2.3988
3.46782 2.90727
3.65059 3.50543
3.86404 4.20394
4.11118 5.01273
3.15796 0
3.16546 0.0300705
3.1746 0.0667137
3.18573 0.111346
3.19928 0.16568
3.21577 0.231779
3.23581 0.312128
3.26015 0.409699
3.28967 0.528045
3.32542 0.67138
3.36865 0.844674
3.4208 1.05374
3.48356 1.30533
3.55884 1.60715
3.64882 1.96789
3.7559 2.39716
3.88264 2.90528
4.03174 3.50302
4.20586 4.20106
4.40746 5.0093
3.94076 0
3.94534 0.030045
3.95092 0.0666572
3.95772 0.111252
3.966 0.165539
3.97607 0.231583
3.9883 0.311863
4.00317 0.409352
4.02119 0.527598
4.04302 0.670811
4.06942 0.843958
4.10126 1.05285
4.13958 1.30423
4.18555 1.60579
4.2405 1.96623
4.30588 2.39513
4.38327 2.90282
4.47431 3.50005
4.58063 4.1975
4.70374 5.00505
5 0
5 0.0300147
5 0.0665899
5 0.111139
5 0.165372
5 0.231349
5 0.311548
5 0.408939
5 0.527065
5 0.670133
5 0.843106
5 1.05179
5 1.30291
5 1.60417
5 1.96424
5 2.39271
5 2.89989
5 3.49652
5 4.19326
5 5
