VARIABLES="X","Y"
ZONE T="Mygrid",I=20,J=81,F=POINT
DT=(DOUBLE DOUBLE)
5 0
5 -0.0300147
5 -0.0665899
5 -0.111139
5 -0.165372
5 -0.231349
5 -0.311548
5 -0.408939
5 -0.527065
5 -0.670133
5 -0.843106
5 -1.05179
5 -1.30291
5 -1.60417
5 -1.96424
5 -2.39271
5 -2.89989
5 -3.49652
5 -4.19326
0 0
3.9902 0
3.60492 -0.0276849
3.60837 -0.0614212
3.61257 -0.102513
3.61768 -0.152536
3.62389 -0.213392
3.63145 -0.287366
3.64062 -0.377197
3.65175 -0.486154
3.66523 -0.618117
3.68152 -0.777664
3.70118 -0.970149
3.72484 -1.20178
3.75322 -1.47965
3.78714 -1.81178
3.82751 -2.20699
3.87529 -2.6748
3.9315 -3.22512
3.99713 -3.86778
0 0
3.25968 0
2.59569 -0.0259995
2.60163 -0.057682
2.60886 -0.096272
2.61767 -0.14325
2.62838 -0.200401
2.6414 -0.269872
2.65721 -0.354234
2.67639 -0.456558
2.69962 -0.580488
2.7277 -0.730321
2.76159 -0.911088
2.80236 -1.12862
2.85127 -1.38957
2.90973 -1.70148
2.9793 -2.07263
3.06164 -2.51196
3.15851 -3.02878
3.27164 -3.63232
0 0
2.73121 0
1.86558 -0.0247803
1.87333 -0.0549769
1.88276 -0.0917573
1.89424 -0.136532
1.9082 -0.191003
1.92518 -0.257216
1.94579 -0.337622
1.97079 -0.435148
2.00107 -0.553265
2.03769 -0.696072
2.08186 -0.868362
2.13501 -1.07569
2.19878 -1.32441
2.27499 -1.62169
2.36568 -1.97543
2.47303 -2.39416
2.59932 -2.88675
2.74679 -3.46198
0 0
2.3489 0
1.33741 -0.0238982
1.34645 -0.0530201
1.35747 -0.0884912
1.37089 -0.131672
1.3872 -0.184204
1.40704 -0.24806
1.43113 -0.325605
1.46034 -0.419659
1.49573 -0.533572
1.53851 -0.671296
1.59012 -0.837453
1.65223 -1.0374
1.72674 -1.27727
1.8158 -1.56396
1.92177 -1.90512
2.04722 -2.30894
2.19478 -2.78399
2.36711 -3.33875
0 0
2.07232 0
0.955312 -0.0232601
0.965302 -0.0516044
0.977469 -0.0861285
0.992282 -0.128157
1.0103 -0.179286
1.03221 -0.241437
1.05881 -0.316911
1.09107 -0.408454
1.13015 -0.519326
1.17739 -0.653372
1.23439 -0.815093
1.30298 -1.0097
1.38527 -1.24316
1.48361 -1.5222
1.60064 -1.85425
1.73917 -2.24729
1.90213 -2.70966
2.09243 -3.24961
0 0
1.87224 0
0.678893 -0.0227985
0.689566 -0.0505803
0.702565 -0.0844192
0.718391 -0.125613
0.737643 -0.175728
0.761045 -0.236646
0.789463 -0.310621
0.823932 -0.400348
0.86568 -0.509019
0.916153 -0.640405
0.977046 -0.798917
1.05032 -0.989663
1.13823 -1.21849
1.2433 -1.492
1.36833 -1.81745
1.51632 -2.20269
1.69042 -2.65588
1.89373 -3.18512
0 0
1.7275 0
0.478925 -0.0224646
0.490092 -0.0498394
0.503693 -0.0831827
0.52025 -0.123773
0.540393 -0.173154
0.564878 -0.233179
0.594612 -0.306072
0.630676 -0.394483
0.674355 -0.501563
0.727164 -0.631025
0.790876 -0.787214
0.867544 -0.975167
0.959519 -1.20064
1.06945 -1.47014
1.20026 -1.79083
1.35511 -2.17043
1.53726 -2.61698
1.74998 -3.13846
0 0
1.62279 0
0.334263 -0.022223
0.345787 -0.0493034
0.359823 -0.0822881
0.376911 -0.122442
0.397698 -0.171292
0.422967 -0.230672
0.453652 -0.30278
0.49087 -0.390241
0.535947 -0.496169
0.590445 -0.624239
0.656196 -0.778749
0.735317 -0.96468
0.830235 -1.18773
0.943683 -1.45433
1.07868 -1.77157
1.23848 -2.14709
1.42646 -2.58884
1.64599 -3.10471
0 0
1.54704 0
0.229611 -0.0220482
0.241393 -0.0489157
0.255745 -0.081641
0.273215 -0.121479
0.294469 -0.169945
0.320304 -0.228858
0.351677 -0.300399
0.38973 -0.387172
0.435818 -0.492267
0.491539 -0.61933
0.558764 -0.772624
0.63966 -0.957093
0.736707 -1.17839
0.852701 -1.44289
0.990727 -1.75764
1.15411 -2.1302
1.34631 -2.56848
1.57076 -3.08029
0 0
1.49224 0
0.153903 -0.0219218
0.165872 -0.0486352
0.180451 -0.0811728
0.198199 -0.120783
0.21979 -0.16897
0.246035 -0.227545
0.277907 -0.298676
0.316564 -0.384952
0.363383 -0.489445
0.419988 -0.615778
0.48828 -0.768194
0.57046 -0.951605
0.669047 -1.17164
0.786881 -1.43462
0.927098 -1.74756
1.09307 -2.11799
1.28832 -2.55375
1.51633 -3.06263
0 0
1.45259 0
0.0991339 -0.0218303
0.111238 -0.0484323
0.125982 -0.0808342
0.143931 -0.120279
0.165766 -0.168265
0.192307 -0.226596
0.224539 -0.29743
0.263633 -0.383346
0.310981 -0.487403
0.368226 -0.613209
0.43729 -0.764989
0.520399 -0.947635
0.6201 -1.16675
0.739266 -1.42863
0.881067 -1.74027
1.04892 -2.10915
1.24637 -2.5431
1.47696 -3.04985
0 0
1.42391 0
0.0595125 -0.0217642
0.0717149 -0.0482855
0.0865778 -0.0805891
0.104671 -0.119914
0.126683 -0.167755
0.153439 -0.225909
0.185931 -0.296529
0.225341 -0.382184
0.273073 -0.485925
0.330781 -0.611351
0.400403 -0.76267
0.484183 -0.944763
0.584691 -1.16321
0.70482 -1.4243
0.847767 -1.73499
1.01698 -2.10276
1.21603 -2.53539
1.44848 -3.04061
0 0
1.40317 0
0.0308494 -0.0217163
0.0431226 -0.0481793
0.0580717 -0.0804119
0.0762702 -0.119651
0.0984095 -0.167386
0.125321 -0.225412
0.158002 -0.295877
0.19764 -0.381343
0.245648 -0.484857
0.303691 -0.610006
0.373717 -0.760993
0.457984 -0.942685
0.559074 -1.16065
0.6799 -1.42117
0.823677 -1.73118
0.993868 -2.09814
1.19407 -2.52981
1.42787 -3.03392
0 0
2.65855 0.0169585
1.00989 -0.00316756
1.01788 -0.0276926
1.02761 -0.0575649
1.03946 -0.0939301
1.05387 -0.13817
1.07139 -0.191947
1.09266 -0.257251
1.11847 -0.336459
1.14972 -0.432392
1.1875 -0.548377
1.23309 -0.688307
1.28794 -0.856693
1.35375 -1.0587
1.43241 -1.30014
1.526 -1.58745
1.63679 -1.92753
1.76712 -2.32759
1.91932 -2.79479
0 0
2.64377 0.013873
0.989384 -0.00620975
0.997424 -0.0306821
1.00722 -0.0604901
1.01914 -0.0967772
1.03364 -0.140922
1.05127 -0.194583
1.07268 -0.259747
1.09865 -0.338785
1.1301 -0.434511
1.16812 -0.550247
1.21399 -0.689876
1.26919 -0.857901
1.33542 -1.05947
1.41457 -1.30039
1.50875 -1.58708
1.62024 -1.92644
1.75139 -2.32564
1.90455 -2.79183
0 0
2.62696 0.0104518
0.966069 -0.00958206
0.974167 -0.0339948
0.98403 -0.0637302
0.996036 -0.0999288
1.01064 -0.143966
1.0284 -0.197496
1.04996 -0.262502
1.07611 -0.341347
1.10778 -0.43684
1.14608 -0.552294
1.19228 -0.691583
1.24787 -0.859198
1.31457 -1.06028
1.39429 -1.30061
1.48914 -1.5866
1.60143 -1.92513
1.73351 -2.32336
1.88777 -2.78841
0 0
2.60797 0.0066918
0.939726 -0.0132871
0.947888 -0.0376328
0.95783 -0.0672866
0.969933 -0.103386
0.984656 -0.147303
1.00255 -0.200686
1.02429 -0.265513
1.05065 -0.344142
1.08258 -0.439373
1.12118 -0.55451
1.16775 -0.693417
1.22379 -0.860572
1.29102 -1.0611
1.37137 -1.30078
1.46699 -1.58598
1.58017 -1.92358
1.71331 -2.32072
1.8688 -2.7845
0 0
2.58665 0.00259985
0.910169 -0.0173177
0.918403 -0.0415888
0.928434 -0.0711516
0.940644 -0.10714
0.955499 -0.150922
0.973556 -0.204142
0.995483 -0.26877
1.02208 -0.347157
1.05429 -0.442097
1.09324 -0.55688
1.14022 -0.695361
1.19676 -0.862003
1.26459 -1.06192
1.34566 -1.30086
1.44213 -1.58519
1.55632 -1.92175
1.69065 -2.31767
1.84752 -2.78003
0 0
2.56292 -0.00180563
0.877265 -0.0216554
0.885581 -0.0458439
0.89571 -0.0753062
0.90804 -0.111172
0.923041 -0.154805
0.941276 -0.207844
0.963419 -0.272252
0.990276 -0.350373
1.0228 -0.444989
1.06213 -0.559382
1.10958 -0.697391
1.16668 -0.863467
1.23517 -1.0627
1.31704 -1.30083
1.41446 -1.58419
1.52977 -1.91961
1.66542 -2.31418
1.82384 -2.77496
0 0
2.53672 -0.00649257
0.840956 -0.0262681
0.849362 -0.0503661
0.8596 -0.0797181
0.872063 -0.11545
0.887225 -0.15892
0.905655 -0.21176
0.928036 -0.275927
0.955183 -0.353756
0.988061 -0.448018
1.02781 -0.561983
1.07577 -0.699476
1.13348 -0.86493
1.20271 -1.06342
1.28546 -1.30066
1.38392 -1.58296
1.50048 -1.91712
1.63759 -2.31022
1.7977 -2.76927
0 0
2.50808 -0.0114135
0.801276 -0.0311085
0.809779 -0.0551083
0.820136 -0.0843408
0.832744 -0.119927
0.848082 -0.16322
0.866727 -0.215845
0.889368 -0.27975
0.91683 -0.357262
0.95009 -0.45114
0.990303 -0.564641
1.03882 -0.701574
1.0972 -0.866355
1.16723 -1.06403
1.25094 -1.30031
1.35055 -1.58146
1.46846 -1.91426
1.60717 -2.30575
1.76915 -2.76294
0 0
2.47711 -0.0165038
0.758366 -0.0361124
0.766974 -0.0600069
0.77746 -0.0891111
0.790225 -0.124541
0.805754 -0.167644
0.82463 -0.220038
0.847553 -0.283663
0.875356 -0.360835
0.90903 -0.454301
0.949743 -0.567304
0.99886 -0.703637
1.05797 -0.867694
1.12887 -1.06451
1.21362 -1.29974
1.31447 -1.57966
1.43385 -1.911
1.57428 -2.30078
1.73827 -2.75596
0 0
2.44398 -0.0216803
0.712489 -0.0411973
0.72121 -0.0649802
0.731834 -0.0939485
0.744766 -0.129213
0.760499 -0.172115
0.779623 -0.224264
0.802847 -0.287592
0.831015 -0.364403
0.865131 -0.457433
0.906378 -0.569908
0.956141 -0.705603
1.01602 -0.868894
1.08786 -1.06479
1.17372 -1.29892
1.2759 -1.57753
1.39684 -1.90733
1.53911 -2.29528
1.70526 -2.74834
0 0
2.40898 -0.0268406
0.664033 -0.0462618
0.672874 -0.069928
0.683643 -0.098754
0.696752 -0.133846
0.712701 -0.176536
0.732087 -0.22843
0.755628 -0.291447
0.784183 -0.367881
0.818766 -0.460454
0.860577 -0.572376
0.911021 -0.707406
0.971724 -0.869895
1.04455 -1.06483
1.13158 -1.29781
1.23515 -1.57505
1.35775 -1.90323
1.50197 -2.28928
1.67039 -2.74011
0 0
2.37248 -0.0318633
0.613506 -0.0511856
0.622472 -0.0747313
0.633392 -0.103411
0.646686 -0.138324
0.662859 -0.180797
0.682518 -0.232426
0.706392 -0.295122
0.735348 -0.371167
0.770419 -0.463269
0.812819 -0.574622
0.863974 -0.708964
0.925531 -0.870626
0.999379 -1.06457
1.08764 -1.29637
1.19267 -1.5722
1.317 -1.8987
1.46325 -2.28279
1.63405 -2.73132
0 0
2.33491 -0.0366102
0.561518 -0.055832
0.570612 -0.0792553
0.581688 -0.107785
0.595173 -0.142517
0.611577 -0.184769
0.631517 -0.23613
0.655732 -0.2985
0.685102 -0.37415
0.720674 -0.465773
0.763681 -0.576547
0.815567 -0.71019
0.878005 -0.871012
0.952909 -1.06394
1.04244 -1.29454
1.14897 -1.56893
1.27507 -1.89374
1.42341 -2.27583
1.59665 -2.72204
0 0
2.29677 -0.0409316
0.508756 -0.0600529
0.51798 -0.0833537
0.529216 -0.111735
0.542893 -0.146285
0.559532 -0.188316
0.579757 -0.239408
0.604319 -0.301452
0.63411 -0.376707
0.67019 -0.46785
0.713813 -0.578045
0.766442 -0.71099
0.829773 -0.87097
0.905749 -1.06289
0.996556 -1.29228
1.10461 -1.56524
1.23252 -1.88835
1.38299 -2.26844
1.5587 -2.71232
0 0
2.25858 -0.0446741
0.455951 -0.0636966
0.465305 -0.0868769
0.476699 -0.115111
0.49057 -0.149482
0.507444 -0.191297
0.527955 -0.242124
0.552863 -0.303848
0.583075 -0.378713
0.619665 -0.469385
0.663904 -0.57901
0.717276 -0.711267
0.781502 -0.870421
0.858551 -1.06135
0.950642 -1.28955
1.06022 -1.5611
1.18994 -1.88254
1.34253 -2.26067
1.52073 -2.70224
0 0
2.22088 -0.0476911
0.403835 -0.0666179
0.413318 -0.0896816
0.424868 -0.117774
0.43893 -0.151972
0.456036 -0.193576
0.476829 -0.244149
0.50208 -0.305562
0.532707 -0.38005
0.569801 -0.470267
0.614648 -0.579341
0.668754 -0.710933
0.733863 -0.869286
0.811971 -1.05926
0.905328 -1.28631
1.01642 -1.5565
1.14792 -1.87632
1.30261 -2.25254
1.48326 -2.6919
0 0
2.18418 -0.0498533
0.353106 -0.0686893
0.362714 -0.0916424
0.374418 -0.1196
0.388664 -0.153634
0.405996 -0.195038
0.427065 -0.245368
0.452649 -0.306486
0.48368 -0.380617
0.521264 -0.470401
0.566704 -0.578951
0.621524 -0.709912
0.687493 -0.867505
0.766633 -1.05656
0.861223 -1.28253
0.973781 -1.55142
1.10702 -1.8697
1.26375 -2.24412
1.44678 -2.68137
0 0
2.14892 -0.0510596
0.304393 -0.0698108
0.314122 -0.0926606
0.325971 -0.120492
0.340397 -0.154373
0.357946 -0.195591
0.379278 -0.245695
0.405182 -0.306538
0.436602 -0.380335
0.474657 -0.469715
0.520665 -0.577777
0.576172 -0.708148
0.642967 -0.865032
0.723098 -1.05324
0.818872 -1.27819
0.932839 -1.54587
1.06774 -1.86272
1.22644 -2.23546
1.41176 -2.67074
0 0
2.1155 -0.051242
0.258228 -0.0699156
0.26807 -0.0926708
0.280059 -0.120387
0.294653 -0.154128
0.312408 -0.195176
0.33399 -0.245071
0.360198 -0.305663
0.391986 -0.379155
0.430487 -0.468165
0.477034 -0.575779
0.533192 -0.705611
0.60077 -0.861846
0.68184 -1.04927
0.778737 -1.27329
0.894039 -1.53986
1.03052 -1.8554
1.19108 -2.2266
1.37858 -2.66008
0 0
2.08424 -0.0503671
0.215028 -0.068971
0.224977 -0.0916413
0.237096 -0.119254
0.251848 -0.152869
0.269796 -0.193764
0.291611 -0.243473
0.318104 -0.303838
0.350237 -0.377056
0.389154 -0.465733
0.436207 -0.572946
0.492973 -0.702294
0.561283 -0.857945
0.643232 -1.04467
0.741179 -1.26786
0.857732 -1.53343
0.995696 -1.8478
1.15799 -2.2176
1.34752 -2.64946
0 0
2.05534 -0.0484289
0.175093 -0.0669714
0.185141 -0.0895669
0.19738 -0.117089
0.212279 -0.150593
0.230403 -0.191352
0.252436 -0.240898
0.27919 -0.301064
0.311642 -0.374041
0.350945 -0.462426
0.398464 -0.569285
0.455792 -0.698206
0.52478 -0.853344
0.607541 -1.03946
0.706458 -1.2619
0.824166 -1.5266
0.963497 -1.83993
1.1274 -2.20852
1.31881 -2.63896
0 0
2.02897 -0.0454345
0.138609 -0.0639243
0.148747 -0.0864556
0.161095 -0.113899
0.176127 -0.147308
0.194415 -0.187952
0.216644 -0.237356
0.243638 -0.297351
0.27638 -0.37012
0.316036 -0.458254
0.36398 -0.564809
0.421822 -0.693363
0.491427 -0.84806
0.57493 -1.03364
0.674733 -1.25546
0.793495 -1.5194
0.934074 -1.83184
1.09945 -2.19938
1.29257 -2.62859
0 0
2.00519 -0.0413803
0.105663 -0.059826
0.115882 -0.0823036
0.128329 -0.109682
0.143482 -0.143011
0.161916 -0.183558
0.184323 -0.232844
0.211533 -0.292697
0.244537 -0.365292
0.28451 -0.453215
0.332838 -0.559517
0.391143 -0.687764
0.461305 -0.842092
0.545476 -1.02723
0.646078 -1.24852
0.765791 -1.51184
0.907495 -1.82353
1.07419 -2.19019
1.26886 -2.61838
0 0
1.98405 -0.0362092
0.0762791 -0.0546196
0.0865702 -0.077054
0.0991051 -0.10438
0.114365 -0.137645
0.132928 -0.178114
0.155494 -0.227306
0.182897 -0.287044
0.216134 -0.3595
0.256388 -0.447255
0.305057 -0.553353
0.363774 -0.681355
0.434432 -0.835387
0.519197 -1.02017
0.62051 -1.24103
0.741067 -1.50385
0.883772 -1.81494
1.05165 -2.1809
1.24769 -2.60827
0 0
1.96559 -0.0297231
0.0504774 -0.0481073
0.0608314 -0.0705097
0.073443 -0.0977965
0.0887958 -0.131014
0.107473 -0.171426
0.130177 -0.220548
0.157747 -0.2802
0.191187 -0.352553
0.231689 -0.440183
0.280656 -0.546129
0.339732 -0.673948
0.410822 -0.827761
0.496105 -1.01228
0.598038 -1.23283
0.719333 -1.49527
0.862911 -1.80592
1.03181 -2.17136
1.22905 -2.59812
0 0
1.9501 -0.0213366
0.0284758 -0.0397049
0.0388828 -0.0620881
0.0515587 -0.0893514
0.0669899 -0.122541
0.0857627 -0.162917
0.108582 -0.211997
0.136293 -0.271598
0.169905 -0.343888
0.210613 -0.431443
0.259829 -0.537298
0.319207 -0.665007
0.39066 -0.818688
0.476379 -1.00305
0.578833 -1.22341
0.700747 -1.48562
0.845058 -1.796
1.01482 -2.16113
1.21307 -2.58752
0 0
1.3226 -1
-0.989703 -1.01327
-0.977155 -1.02945
-0.961871 -1.04914
-0.943264 -1.07313
-0.920629 -1.1023
-0.893115 -1.13776
-0.859702 -1.18083
-0.819176 -1.23306
-0.770092 -1.29632
-0.710749 -1.37281
-0.639155 -1.46509
-0.553001 -1.57613
-0.449646 -1.70934
-0.326114 -1.86856
-0.179116 -2.05802
-0.00511369 -2.28229
0.199577 -2.54611
0.438614 -2.8542
0 0
2.74327 0.0213366
0.0262548 0.00761018
0.0339553 -0.00911653
0.0433347 -0.0294901
0.0547528 -0.0542921
0.0686434 -0.084465
0.0855284 -0.121142
0.106033 -0.165681
0.130903 -0.219703
0.161024 -0.285132
0.197442 -0.364236
0.241377 -0.459672
0.294248 -0.574515
0.357675 -0.712288
0.433483 -0.876958
0.523692 -1.07291
0.630473 -1.30485
0.756087 -1.57771
0.902778 -1.89634
0 0
2.77186 0.0297231
0.0482197 0.0160125
0.0558226 -0.000694912
0.0650831 -0.021045
0.0763566 -0.0458184
0.0900712 -0.0759565
0.106742 -0.112591
0.126987 -0.157079
0.151542 -0.211039
0.181282 -0.276392
0.217238 -0.355405
0.260617 -0.450731
0.312817 -0.565442
0.37544 -0.703056
0.450289 -0.867536
0.539355 -1.06326
0.644783 -1.29494
0.768805 -1.56748
0.913638 -1.88575
0 0
2.80511 0.0362092
0.07398 0.0225248
0.0814694 0.00584938
0.0905918 -0.0144617
0.101697 -0.0391877
0.115207 -0.069268
0.131629 -0.105833
0.151572 -0.150235
0.17576 -0.204091
0.205056 -0.269319
0.240475 -0.348181
0.283207 -0.443324
0.334629 -0.557816
0.396317 -0.695166
0.470048 -0.859331
0.557785 -1.05468
0.66164 -1.28591
0.783811 -1.55793
0.926482 -1.87559
0 0
2.84286 0.0413803
0.103318 0.0277313
0.110678 0.0110989
0.119644 -0.00915976
0.130558 -0.0338219
0.143836 -0.0638245
0.159976 -0.100295
0.179575 -0.144582
0.203348 -0.1983
0.23214 -0.263359
0.26695 -0.342017
0.308947 -0.436915
0.359485 -0.551111
0.420112 -0.688106
0.492575 -0.851847
0.578803 -1.04669
0.680872 -1.27733
0.800943 -1.54864
0.94116 -1.86548
0 0
2.8851 0.0454345
0.136212 0.0318296
0.143428 0.0152509
0.152218 -0.00494231
0.162919 -0.0295248
0.175936 -0.0594305
0.19176 -0.0957828
0.210976 -0.139928
0.234283 -0.193471
0.262511 -0.258321
0.296639 -0.336725
0.337814 -0.431316
0.387362 -0.545143
0.446802 -0.681696
0.517846 -0.844908
0.602385 -1.03912
0.702455 -1.26902
0.820174 -1.53945
0.957646 -1.85527
0 0
2.93185 0.0484289
0.172639 0.0348767
0.179696 0.0183623
0.188292 -0.00175265
0.198756 -0.0262398
0.211486 -0.0560296
0.22696 -0.0922409
0.245751 -0.136215
0.268543 -0.189551
0.296147 -0.254149
0.329521 -0.332249
0.369786 -0.426473
0.418238 -0.539859
0.476365 -0.675883
0.545839 -0.838462
0.628509 -1.03192
0.726368 -1.26092
0.841485 -1.53032
0.975918 -1.84491
0 0
2.98298 0.0503671
0.212511 0.0368763
0.219394 0.0204367
0.227777 0.000412744
0.237982 -0.0239636
0.250398 -0.0536185
0.265489 -0.089666
0.283815 -0.133441
0.306044 -0.186535
0.332965 -0.250841
0.365514 -0.328588
0.404783 -0.422385
0.452038 -0.535258
0.508727 -0.670666
0.576483 -0.832509
0.65711 -1.02509
0.752548 -1.25306
0.864819 -1.52123
0.995928 -1.8344
0 0
3.03829 0.051242
0.255644 0.0378209
0.262338 0.0214662
0.270491 0.00154576
0.280416 -0.0227046
0.292491 -0.0522063
0.307169 -0.0880675
0.324993 -0.131616
0.346611 -0.184436
0.372795 -0.24841
0.404451 -0.325755
0.442643 -0.419068
0.488602 -0.531357
0.543737 -0.666066
0.609635 -0.827073
0.688051 -1.01866
0.780873 -1.24545
0.890065 -1.51224
1.01758 -1.82379
0 0
3.09739 0.0510596
0.301737 0.037716
0.30823 0.0214559
0.316137 0.00165066
0.325763 -0.0224595
0.337474 -0.0517906
0.35171 -0.0874444
0.368997 -0.130741
0.389964 -0.183256
0.415359 -0.246859
0.446062 -0.323757
0.483103 -0.416531
0.527677 -0.528171
0.581151 -0.6621
0.645064 -0.822176
0.721117 -1.01266
0.811142 -1.23813
0.917045 -1.50338
1.04072 -1.81313
0 0
3.15976 0.0498533
0.350374 0.0365946
0.356654 0.0204377
0.364302 0.000758252
0.373613 -0.0231987
0.38494 -0.0523436
0.398709 -0.0877709
0.415429 -0.130793
0.435709 -0.182974
0.460271 -0.246173
0.489968 -0.322583
0.525795 -0.414767
0.568908 -0.525698
0.620629 -0.658777
0.682447 -0.817836
0.756007 -1.00711
0.843081 -1.23115
0.945512 -1.49471
1.06513 -1.80249
0 0
3.22472 0.0476911
0.401024 0.0345231
0.407082 0.018477
0.41446 -0.00106763
0.423442 -0.0248605
0.434369 -0.0538056
0.447652 -0.0889902
0.463782 -0.131717
0.483347 -0.183541
0.507042 -0.246307
0.53569 -0.322193
0.570252 -0.413746
0.611844 -0.523917
0.661739 -0.656084
0.721375 -0.814053
0.792338 -1.00203
0.876339 -1.22454
0.975154 -1.48629
1.09055 -1.79196
0 0
3.29146 0.0446741
0.453059 0.0316018
0.458889 0.0156722
0.46599 -0.00373045
0.474634 -0.0273505
0.485151 -0.0560855
0.497934 -0.0910146
0.513458 -0.133431
0.532286 -0.184879
0.555091 -0.247189
0.582662 -0.322524
0.615925 -0.413412
0.655952 -0.522783
0.703972 -0.65399
0.761365 -0.810812
0.829661 -0.997423
0.910504 -1.21832
1.0056 -1.47817
1.11666 -1.78162
0 0
3.3591 0.0409316
0.505782 0.0279582
0.511381 0.0121491
0.518201 -0.00710686
0.526503 -0.0305483
0.536603 -0.0590658
0.54888 -0.0937307
0.563789 -0.135826
0.581873 -0.186885
0.603774 -0.248724
0.630254 -0.323489
0.6622 -0.413689
0.700643 -0.522233
0.746761 -0.652447
0.801883 -0.808083
0.867475 -0.993282
0.945117 -1.2125
1.03645 -1.47039
1.14311 -1.77155
0 0
3.4267 0.0366102
0.558461 0.0237372
0.563829 0.00805062
0.570368 -0.0110561
0.578328 -0.0343159
0.588012 -0.0626126
0.599784 -0.0970089
0.614079 -0.138779
0.631417 -0.189441
0.652417 -0.250801
0.677805 -0.324987
0.708436 -0.414489
0.745295 -0.522191
0.789513 -0.651397
0.842364 -0.805827
0.905254 -0.989592
0.979698 -1.20712
1.06727 -1.463
1.16954 -1.76183
0 0
3.49331 0.0318633
0.610367 0.0190908
0.615509 0.00352664
0.621771 -0.015431
0.629394 -0.0385092
0.638668 -0.0665851
0.649941 -0.100713
0.663631 -0.142157
0.680235 -0.192424
0.700345 -0.253305
0.724659 -0.326912
0.753992 -0.415715
0.789291 -0.522577
0.831637 -0.650774
0.88225 -0.803999
0.942477 -0.986329
1.01377 -1.20216
1.09763 -1.45605
1.19557 -1.75254
0 0
3.55807 0.0268406
0.660815 0.0141671
0.665736 -0.00127668
0.671729 -0.0200876
0.679024 -0.0429872
0.6879 -0.0708457
0.698688 -0.104709
0.711789 -0.145832
0.72768 -0.195711
0.746926 -0.256121
0.770195 -0.329158
0.798267 -0.417273
0.832049 -0.523308
0.872575 -0.650514
0.921013 -0.802552
0.978652 -0.983471
1.04688 -1.19763
1.12714 -1.44955
1.22087 -1.74375
0 0
3.62018 0.0216803
0.709195 0.00910257
0.713903 -0.00622439
0.719638 -0.0248931
0.72662 -0.0476195
0.735113 -0.0752674
0.745437 -0.108875
0.757974 -0.149687
0.77318 -0.199188
0.791597 -0.259141
0.813863 -0.331626
0.840727 -0.419076
0.873053 -0.524309
0.911834 -0.650552
0.958185 -0.801442
1.01334 -0.980993
1.07863 -1.19353
1.15543 -1.44355
1.24512 -1.73552
0 0
3.67899 0.0165038
0.755 0.00401762
0.759508 -0.0111977
0.764998 -0.0297304
0.771682 -0.0522914
0.779813 -0.079738
0.789697 -0.113101
0.8017 -0.153616
0.816258 -0.202756
0.83389 -0.262273
0.855207 -0.33423
0.880925 -0.421042
0.911874 -0.525509
0.949002 -0.650834
0.993377 -0.800624
1.04618 -0.978867
1.10869 -1.18986
1.18222 -1.43806
1.26809 -1.7279
0 0
3.73401 0.0114135
0.797843 -0.000986264
0.802163 -0.0160963
0.807425 -0.0345008
0.81383 -0.0569056
0.821623 -0.0841622
0.831095 -0.117294
0.842598 -0.157529
0.856549 -0.206329
0.873447 -0.265434
0.893876 -0.336893
0.918524 -0.423105
0.948183 -0.526849
0.983765 -0.651305
1.02629 -0.800059
1.0769 -0.977069
1.1368 -1.1866
1.20727 -1.43308
1.28956 -1.72092
0 0
3.78489 0.00649257
0.837461 -0.00582664
0.841608 -0.0208385
0.846658 -0.0391234
0.852806 -0.0613827
0.860285 -0.0884623
0.869377 -0.121379
0.880417 -0.161352
0.893808 -0.209836
0.910026 -0.268556
0.929635 -0.339551
0.953291 -0.425203
0.981759 -0.528273
1.01591 -0.651921
1.05673 -0.799709
1.1053 -0.975569
1.1628 -1.18374
1.23043 -1.42862
1.30941 -1.71459
0 0
3.83146 0.00180563
0.873713 -0.0104393
0.8777 -0.0253607
0.882557 -0.0435354
0.888469 -0.0656605
0.895662 -0.0925768
0.904405 -0.125295
0.915022 -0.165027
0.9279 -0.213219
0.943497 -0.271585
0.962354 -0.342152
0.985104 -0.427288
1.01248 -0.529736
1.04532 -0.652639
1.08458 -0.799536
1.13129 -0.974336
1.18658 -1.18125
1.25162 -1.42465
1.32758 -1.7089
0 0
3.87366 -0.00259985
0.906565 -0.014777
0.910408 -0.0296158
0.915089 -0.0476899
0.920788 -0.0696926
0.927721 -0.0964599
0.936148 -0.128997
0.946382 -0.168509
0.958795 -0.216434
0.973828 -0.274478
0.992004 -0.344654
1.01393 -0.429318
1.04032 -0.5312
1.07198 -0.653423
1.10981 -0.799506
1.15484 -0.973339
1.20813 -1.17911
1.27083 -1.42116
1.34404 -1.70384
0 0
3.91158 -0.0066918
0.936076 -0.0188077
0.93979 -0.0335718
0.944313 -0.0515549
0.94982 -0.0734469
0.95652 -0.100079
0.964663 -0.132453
0.974553 -0.171766
0.986547 -0.21945
1.00107 -0.277201
1.01864 -0.347024
1.03983 -0.431262
1.06533 -0.532631
1.09592 -0.654239
1.13248 -0.799587
1.17599 -0.972545
1.22749 -1.17728
1.28807 -1.41812
1.35882 -1.69937
0 0
3.94538 -0.0104518
0.962378 -0.0225127
0.965976 -0.0372098
0.970359 -0.0551114
0.975695 -0.076904
0.982187 -0.103416
0.990078 -0.135642
0.99966 -0.174777
1.01128 -0.222244
1.02536 -0.279734
1.04238 -0.34924
1.06291 -0.433096
1.08762 -0.534005
1.11726 -0.655061
1.15268 -0.79975
1.19484 -0.971923
1.24474 -1.17573
1.30344 -1.41547
1.372 -1.69545
0 0
3.9753 -0.013873
0.985655 -0.025885
0.989152 -0.0405225
0.993411 -0.0583514
0.998595 -0.0800557
1.0049 -0.10646
1.01257 -0.138556
1.02188 -0.177532
1.03317 -0.224806
1.04685 -0.282063
1.06339 -0.351287
1.08334 -0.434803
1.10734 -0.535303
1.13614 -0.655867
1.17056 -0.799969
1.21152 -0.971444
1.26001 -1.17442
1.31705 -1.41319
1.38365 -1.69203
0 0
2.60732 -1
-0.9933 -1.00556
-0.985136 -1.01234
-0.975191 -1.02059
-0.963085 -1.03063
-0.948358 -1.04286
-0.930456 -1.05771
-0.908716 -1.07575
-0.882348 -1.09764
-0.850412 -1.12414
-0.8118 -1.15618
-0.765218 -1.19484
-0.709162 -1.24136
-0.641915 -1.29716
-0.561539 -1.36386
-0.465896 -1.44323
-0.352682 -1.53719
-0.2195 -1.64771
-0.0639721 -1.77677
0 0
3.99995 0
0.00280033 -0.00600326
0.00621274 -0.0133187
0.0103691 -0.0222291
0.015429 -0.0330763
0.0215845 -0.0462724
0.029067 -0.062313
0.0381534 -0.0817922
0.0491744 -0.105419
0.0625224 -0.134034
0.0786605 -0.16863
0.0981303 -0.210369
0.12156 -0.260596
0.149667 -0.320851
0.183261 -0.392869
0.223236 -0.478568
0.270555 -0.580009
0.32622 -0.699342
0.391225 -0.838698
0 0
4.02649 0
0.0235036 -0.00596864
0.0268255 -0.0132419
0.0308716 -0.0221009
0.0357971 -0.0328855
0.0417892 -0.0460055
0.0490731 -0.0619536
0.0579183 -0.0813204
0.0686467 -0.104811
0.0816405 -0.133261
0.0973502 -0.167658
0.116303 -0.209156
0.13911 -0.259093
0.166471 -0.319
0.199174 -0.390603
0.238088 -0.475807
0.284151 -0.576664
0.338338 -0.695308
0.401618 -0.833861
0 0
4.06319 0
0.0521221 -0.00592077
0.0553187 -0.0131357
0.0592123 -0.0219236
0.0639522 -0.0326217
0.0697184 -0.0456365
0.0767277 -0.0614568
0.0852395 -0.0806683
0.0955636 -0.10397
0.108068 -0.132192
0.123185 -0.166313
0.141424 -0.207478
0.163371 -0.257015
0.189701 -0.316442
0.221171 -0.387471
0.258618 -0.471991
0.302945 -0.572039
0.35509 -0.689732
0.415984 -0.827173
0 0
4.11391 0
0.0916817 -0.0058546
0.0947053 -0.0129889
0.098388 -0.0216786
0.102871 -0.0322572
0.108325 -0.0451265
0.114955 -0.0607699
0.123006 -0.0797668
0.132771 -0.102808
0.144598 -0.130715
0.158897 -0.164454
0.176148 -0.20516
0.196907 -0.254143
0.221811 -0.312906
0.251577 -0.383141
0.286997 -0.466717
0.328924 -0.565646
0.378245 -0.682024
0.435842 -0.817929
0 0
4.18403 0
0.146366 -0.00576314
0.14915 -0.012786
0.152541 -0.02134
0.15667 -0.0317532
0.161692 -0.0444215
0.167797 -0.0598206
0.175211 -0.0785206
0.184203 -0.101202
0.195094 -0.128673
0.208262 -0.161885
0.224148 -0.201955
0.243265 -0.250173
0.266198 -0.308017
0.293608 -0.377155
0.326225 -0.459425
0.364834 -0.556809
0.410253 -0.671369
0.463292 -0.805151
0 0
4.28095 0
0.221956 -0.00563671
0.224409 -0.0125055
0.227398 -0.0208718
0.231036 -0.0310566
0.235462 -0.043447
0.240842 -0.0585082
0.247375 -0.076798
0.255299 -0.0989819
0.264896 -0.12585
0.2765 -0.158334
0.290499 -0.197524
0.307345 -0.244684
0.327554 -0.30126
0.351708 -0.368881
0.380451 -0.449346
0.414474 -0.544594
0.454498 -0.656641
0.501237 -0.787488
0 0
4.41493 0
0.326445 -0.00546194
0.328441 -0.0121177
0.330873 -0.0202247
0.333833 -0.0300937
0.337434 -0.0420999
0.341812 -0.0566942
0.347128 -0.0744169
0.353575 -0.095913
0.361385 -0.121948
0.370826 -0.153425
0.382217 -0.1914
0.395924 -0.237098
0.412367 -0.291919
0.432021 -0.357444
0.455408 -0.435414
0.483092 -0.527709
0.515658 -0.636281
0.553689 -0.763072
0 0
4.60013 0
0.470881 -0.00522036
0.472246 -0.0115818
0.473908 -0.0193301
0.475931 -0.0287627
0.478392 -0.0402378
0.481384 -0.0541866
0.485017 -0.0711254
0.489424 -0.0916707
0.494761 -0.116554
0.501214 -0.146639
0.508999 -0.182934
0.518367 -0.226611
0.529606 -0.279008
0.543039 -0.341634
0.559023 -0.416156
0.577943 -0.504368
0.600201 -0.608139
0.626193 -0.729321
0 0
4.85613 0
0.670538 -0.00488642
0.671029 -0.0108409
0.671627 -0.0180936
0.672355 -0.0269227
0.67324 -0.0376638
0.674317 -0.0507203
0.675624 -0.0665756
0.677209 -0.0858066
0.67913 -0.109098
0.681451 -0.137258
0.684252 -0.171232
0.687623 -0.212115
0.691666 -0.26116
0.696499 -0.31978
0.70225 -0.389535
0.709057 -0.472104
0.717065 -0.569236
0.726417 -0.682667
0 0
5.21001 0
0.946526 -0.0044248
0.945809 -0.00981676
0.944936 -0.0163843
0.943874 -0.0243794
0.942581 -0.0341058
0.94101 -0.0459288
0.939102 -0.0602863
0.936787 -0.0777006
0.933984 -0.0987919
0.930595 -0.124292
0.926507 -0.155056
0.921587 -0.192077
0.915684 -0.236488
0.90863 -0.289571
0.900235 -0.352736
0.890298 -0.427505
0.878609 -0.515461
0.864958 -0.618176
0 0
5.69918 0
1.32803 -0.00378671
1.32564 -0.0084011
1.32274 -0.0140216
1.3192 -0.0208637
1.31489 -0.0291874
1.30966 -0.0393055
1.30331 -0.0515925
1.2956 -0.0664955
1.28627 -0.0845452
1.27499 -0.106368
1.26138 -0.132696
1.245 -0.164377
1.22535 -0.202385
1.20186 -0.247812
1.17391 -0.301868
1.14083 -0.365855
1.10191 -0.441127
1.05646 -0.52903
0 0
6.37536 0
1.85538 -0.00290466
1.85069 -0.00644422
1.84497 -0.0107555
1.83801 -0.0160039
1.82955 -0.0223888
1.81926 -0.03015
1.80676 -0.0395749
1.7916 -0.0510066
1.77325 -0.064852
1.75105 -0.0815913
1.72427 -0.101787
1.69205 -0.126089
1.6534 -0.155243
1.6072 -0.190089
1.55222 -0.231554
1.48714 -0.280636
1.41059 -0.338375
1.32119 -0.405802
0 0
7.31005 0
2.58435 -0.0016854
2.57647 -0.00373919
2.56686 -0.00624076
2.55518 -0.00928608
2.54096 -0.0129908
2.52367 -0.0174942
2.50269 -0.022963
2.47723 -0.029596
2.44639 -0.0376297
2.40912 -0.0473425
2.36414 -0.0590606
2.31002 -0.0731617
2.2451 -0.0900781
2.1675 -0.110297
2.07516 -0.134357
1.96585 -0.162836
1.83727 -0.196339
1.68711 -0.235462
0 0
8.6021 0
3.59201 0
3.57972 0
3.56475 0
3.54652 0
3.52435 0
3.4974 0
3.46467 0
3.42497 0
3.3769 0
3.31877 0
3.24864 0
3.16425 0
3.06301 0
2.94201 0
2.79802 0
2.62758 0
2.42708 0
2.19294 0
0 0
